# vtk DataFile Version 2.0
Test example
ASCII
DATASET POLYDATA
POINTS  545  double
0  0  0
0  1  0
0.5  0.5  0
1  0  0
1  1  0
0  0.0625  0
0  0.125  0
0  0.1875  0
0  0.25  0
0  0.3125  0
0  0.375  0
0  0.4375  0
0  0.5  0
0  0.5625  0
0  0.625  0
0  0.6875  0
0  0.75  0
0  0.8125  0
0  0.875  0
0  0.9375  0
0.03125  0.03125  0
0.0625  0.0625  0
0.09375  0.09375  0
0.125  0.125  0
0.15625  0.15625  0
0.1875  0.1875  0
0.21875  0.21875  0
0.25  0.25  0
0.28125  0.28125  0
0.3125  0.3125  0
0.34375  0.34375  0
0.375  0.375  0
0.40625  0.40625  0
0.4375  0.4375  0
0.46875  0.46875  0
0.0625  0  0
0.125  0  0
0.1875  0  0
0.25  0  0
0.3125  0  0
0.375  0  0
0.4375  0  0
0.5  0  0
0.5625  0  0
0.625  0  0
0.6875  0  0
0.75  0  0
0.8125  0  0
0.875  0  0
0.9375  0  0
0.03125  0.96875  0
0.0625  0.9375  0
0.09375  0.90625  0
0.125  0.875  0
0.15625  0.84375  0
0.1875  0.8125  0
0.21875  0.78125  0
0.25  0.75  0
0.28125  0.71875  0
0.3125  0.6875  0
0.34375  0.65625  0
0.375  0.625  0
0.40625  0.59375  0
0.4375  0.5625  0
0.46875  0.53125  0
0.0625  1  0
0.125  1  0
0.1875  1  0
0.25  1  0
0.3125  1  0
0.375  1  0
0.4375  1  0
0.5  1  0
0.5625  1  0
0.625  1  0
0.6875  1  0
0.75  1  0
0.8125  1  0
0.875  1  0
0.9375  1  0
0.53125  0.46875  0
0.5625  0.4375  0
0.59375  0.40625  0
0.625  0.375  0
0.65625  0.34375  0
0.6875  0.3125  0
0.71875  0.28125  0
0.75  0.25  0
0.78125  0.21875  0
0.8125  0.1875  0
0.84375  0.15625  0
0.875  0.125  0
0.90625  0.09375  0
0.9375  0.0625  0
0.96875  0.03125  0
0.53125  0.53125  0
0.5625  0.5625  0
0.59375  0.59375  0
0.625  0.625  0
0.65625  0.65625  0
0.6875  0.6875  0
0.71875  0.71875  0
0.75  0.75  0
0.78125  0.78125  0
0.8125  0.8125  0
0.84375  0.84375  0
0.875  0.875  0
0.90625  0.90625  0
0.9375  0.9375  0
0.96875  0.96875  0
1  0.0625  0
1  0.125  0
1  0.1875  0
1  0.25  0
1  0.3125  0
1  0.375  0
1  0.4375  0
1  0.5  0
1  0.5625  0
1  0.625  0
1  0.6875  0
1  0.75  0
1  0.8125  0
1  0.875  0
1  0.9375  0
0.03125  0.09375  0
0.0625  0.125  0
0.03125  0.15625  0
0.09375  0.15625  0
0.0625  0.1875  0
0.03125  0.21875  0
0.125  0.1875  0
0.09375  0.21875  0
0.0625  0.25  0
0.03125  0.28125  0
0.15625  0.21875  0
0.125  0.25  0
0.09375  0.28125  0
0.0625  0.3125  0
0.03125  0.34375  0
0.1875  0.25  0
0.15625  0.28125  0
0.125  0.3125  0
0.09375  0.34375  0
0.0625  0.375  0
0.03125  0.40625  0
0.21875  0.28125  0
0.1875  0.3125  0
0.15625  0.34375  0
0.125  0.375  0
0.09375  0.40625  0
0.0625  0.4375  0
0.03125  0.46875  0
0.25  0.3125  0
0.21875  0.34375  0
0.1875  0.375  0
0.15625  0.40625  0
0.125  0.4375  0
0.09375  0.46875  0
0.0625  0.5  0
0.03125  0.53125  0
0.28125  0.34375  0
0.25  0.375  0
0.21875  0.40625  0
0.1875  0.4375  0
0.15625  0.46875  0
0.125  0.5  0
0.09375  0.53125  0
0.0625  0.5625  0
0.03125  0.59375  0
0.3125  0.375  0
0.28125  0.40625  0
0.25  0.4375  0
0.21875  0.46875  0
0.1875  0.5  0
0.15625  0.53125  0
0.125  0.5625  0
0.09375  0.59375  0
0.0625  0.625  0
0.03125  0.65625  0
0.34375  0.40625  0
0.3125  0.4375  0
0.28125  0.46875  0
0.25  0.5  0
0.21875  0.53125  0
0.1875  0.5625  0
0.15625  0.59375  0
0.125  0.625  0
0.09375  0.65625  0
0.0625  0.6875  0
0.03125  0.71875  0
0.375  0.4375  0
0.34375  0.46875  0
0.3125  0.5  0
0.28125  0.53125  0
0.25  0.5625  0
0.21875  0.59375  0
0.1875  0.625  0
0.15625  0.65625  0
0.125  0.6875  0
0.09375  0.71875  0
0.0625  0.75  0
0.03125  0.78125  0
0.40625  0.46875  0
0.375  0.5  0
0.34375  0.53125  0
0.3125  0.5625  0
0.28125  0.59375  0
0.25  0.625  0
0.21875  0.65625  0
0.1875  0.6875  0
0.15625  0.71875  0
0.125  0.75  0
0.09375  0.78125  0
0.0625  0.8125  0
0.03125  0.84375  0
0.4375  0.5  0
0.40625  0.53125  0
0.375  0.5625  0
0.34375  0.59375  0
0.3125  0.625  0
0.28125  0.65625  0
0.25  0.6875  0
0.21875  0.71875  0
0.1875  0.75  0
0.15625  0.78125  0
0.125  0.8125  0
0.09375  0.84375  0
0.0625  0.875  0
0.03125  0.90625  0
0.09375  0.03125  0
0.15625  0.03125  0
0.125  0.0625  0
0.21875  0.03125  0
0.1875  0.0625  0
0.15625  0.09375  0
0.28125  0.03125  0
0.25  0.0625  0
0.21875  0.09375  0
0.1875  0.125  0
0.34375  0.03125  0
0.3125  0.0625  0
0.28125  0.09375  0
0.25  0.125  0
0.21875  0.15625  0
0.40625  0.03125  0
0.375  0.0625  0
0.34375  0.09375  0
0.3125  0.125  0
0.28125  0.15625  0
0.25  0.1875  0
0.46875  0.03125  0
0.4375  0.0625  0
0.40625  0.09375  0
0.375  0.125  0
0.34375  0.15625  0
0.3125  0.1875  0
0.28125  0.21875  0
0.53125  0.03125  0
0.5  0.0625  0
0.46875  0.09375  0
0.4375  0.125  0
0.40625  0.15625  0
0.375  0.1875  0
0.34375  0.21875  0
0.3125  0.25  0
0.59375  0.03125  0
0.5625  0.0625  0
0.53125  0.09375  0
0.5  0.125  0
0.46875  0.15625  0
0.4375  0.1875  0
0.40625  0.21875  0
0.375  0.25  0
0.34375  0.28125  0
0.65625  0.03125  0
0.625  0.0625  0
0.59375  0.09375  0
0.5625  0.125  0
0.53125  0.15625  0
0.5  0.1875  0
0.46875  0.21875  0
0.4375  0.25  0
0.40625  0.28125  0
0.375  0.3125  0
0.71875  0.03125  0
0.6875  0.0625  0
0.65625  0.09375  0
0.625  0.125  0
0.59375  0.15625  0
0.5625  0.1875  0
0.53125  0.21875  0
0.5  0.25  0
0.46875  0.28125  0
0.4375  0.3125  0
0.40625  0.34375  0
0.78125  0.03125  0
0.75  0.0625  0
0.71875  0.09375  0
0.6875  0.125  0
0.65625  0.15625  0
0.625  0.1875  0
0.59375  0.21875  0
0.5625  0.25  0
0.53125  0.28125  0
0.5  0.3125  0
0.46875  0.34375  0
0.4375  0.375  0
0.84375  0.03125  0
0.8125  0.0625  0
0.78125  0.09375  0
0.75  0.125  0
0.71875  0.15625  0
0.6875  0.1875  0
0.65625  0.21875  0
0.625  0.25  0
0.59375  0.28125  0
0.5625  0.3125  0
0.53125  0.34375  0
0.5  0.375  0
0.46875  0.40625  0
0.90625  0.03125  0
0.875  0.0625  0
0.84375  0.09375  0
0.8125  0.125  0
0.78125  0.15625  0
0.75  0.1875  0
0.71875  0.21875  0
0.6875  0.25  0
0.65625  0.28125  0
0.625  0.3125  0
0.59375  0.34375  0
0.5625  0.375  0
0.53125  0.40625  0
0.5  0.4375  0
0.5625  0.5  0
0.59375  0.46875  0
0.59375  0.53125  0
0.625  0.4375  0
0.625  0.5  0
0.625  0.5625  0
0.65625  0.40625  0
0.65625  0.46875  0
0.65625  0.53125  0
0.65625  0.59375  0
0.6875  0.375  0
0.6875  0.4375  0
0.6875  0.5  0
0.6875  0.5625  0
0.6875  0.625  0
0.71875  0.34375  0
0.71875  0.40625  0
0.71875  0.46875  0
0.71875  0.53125  0
0.71875  0.59375  0
0.71875  0.65625  0
0.75  0.3125  0
0.75  0.375  0
0.75  0.4375  0
0.75  0.5  0
0.75  0.5625  0
0.75  0.625  0
0.75  0.6875  0
0.78125  0.28125  0
0.78125  0.34375  0
0.78125  0.40625  0
0.78125  0.46875  0
0.78125  0.53125  0
0.78125  0.59375  0
0.78125  0.65625  0
0.78125  0.71875  0
0.8125  0.25  0
0.8125  0.3125  0
0.8125  0.375  0
0.8125  0.4375  0
0.8125  0.5  0
0.8125  0.5625  0
0.8125  0.625  0
0.8125  0.6875  0
0.8125  0.75  0
0.84375  0.21875  0
0.84375  0.28125  0
0.84375  0.34375  0
0.84375  0.40625  0
0.84375  0.46875  0
0.84375  0.53125  0
0.84375  0.59375  0
0.84375  0.65625  0
0.84375  0.71875  0
0.84375  0.78125  0
0.875  0.1875  0
0.875  0.25  0
0.875  0.3125  0
0.875  0.375  0
0.875  0.4375  0
0.875  0.5  0
0.875  0.5625  0
0.875  0.625  0
0.875  0.6875  0
0.875  0.75  0
0.875  0.8125  0
0.90625  0.15625  0
0.90625  0.21875  0
0.90625  0.28125  0
0.90625  0.34375  0
0.90625  0.40625  0
0.90625  0.46875  0
0.90625  0.53125  0
0.90625  0.59375  0
0.90625  0.65625  0
0.90625  0.71875  0
0.90625  0.78125  0
0.90625  0.84375  0
0.9375  0.125  0
0.9375  0.1875  0
0.9375  0.25  0
0.9375  0.3125  0
0.9375  0.375  0
0.9375  0.4375  0
0.9375  0.5  0
0.9375  0.5625  0
0.9375  0.625  0
0.9375  0.6875  0
0.9375  0.75  0
0.9375  0.8125  0
0.9375  0.875  0
0.96875  0.09375  0
0.96875  0.15625  0
0.96875  0.21875  0
0.96875  0.28125  0
0.96875  0.34375  0
0.96875  0.40625  0
0.96875  0.46875  0
0.96875  0.53125  0
0.96875  0.59375  0
0.96875  0.65625  0
0.96875  0.71875  0
0.96875  0.78125  0
0.96875  0.84375  0
0.96875  0.90625  0
0.09375  0.96875  0
0.125  0.9375  0
0.15625  0.96875  0
0.15625  0.90625  0
0.1875  0.9375  0
0.21875  0.96875  0
0.1875  0.875  0
0.21875  0.90625  0
0.25  0.9375  0
0.28125  0.96875  0
0.21875  0.84375  0
0.25  0.875  0
0.28125  0.90625  0
0.3125  0.9375  0
0.34375  0.96875  0
0.25  0.8125  0
0.28125  0.84375  0
0.3125  0.875  0
0.34375  0.90625  0
0.375  0.9375  0
0.40625  0.96875  0
0.28125  0.78125  0
0.3125  0.8125  0
0.34375  0.84375  0
0.375  0.875  0
0.40625  0.90625  0
0.4375  0.9375  0
0.46875  0.96875  0
0.3125  0.75  0
0.34375  0.78125  0
0.375  0.8125  0
0.40625  0.84375  0
0.4375  0.875  0
0.46875  0.90625  0
0.5  0.9375  0
0.53125  0.96875  0
0.34375  0.71875  0
0.375  0.75  0
0.40625  0.78125  0
0.4375  0.8125  0
0.46875  0.84375  0
0.5  0.875  0
0.53125  0.90625  0
0.5625  0.9375  0
0.59375  0.96875  0
0.375  0.6875  0
0.40625  0.71875  0
0.4375  0.75  0
0.46875  0.78125  0
0.5  0.8125  0
0.53125  0.84375  0
0.5625  0.875  0
0.59375  0.90625  0
0.625  0.9375  0
0.65625  0.96875  0
0.40625  0.65625  0
0.4375  0.6875  0
0.46875  0.71875  0
0.5  0.75  0
0.53125  0.78125  0
0.5625  0.8125  0
0.59375  0.84375  0
0.625  0.875  0
0.65625  0.90625  0
0.6875  0.9375  0
0.71875  0.96875  0
0.4375  0.625  0
0.46875  0.65625  0
0.5  0.6875  0
0.53125  0.71875  0
0.5625  0.75  0
0.59375  0.78125  0
0.625  0.8125  0
0.65625  0.84375  0
0.6875  0.875  0
0.71875  0.90625  0
0.75  0.9375  0
0.78125  0.96875  0
0.46875  0.59375  0
0.5  0.625  0
0.53125  0.65625  0
0.5625  0.6875  0
0.59375  0.71875  0
0.625  0.75  0
0.65625  0.78125  0
0.6875  0.8125  0
0.71875  0.84375  0
0.75  0.875  0
0.78125  0.90625  0
0.8125  0.9375  0
0.84375  0.96875  0
0.5  0.5625  0
[...]
CELL_DATA    1024
SCALARS    strainEnergy    float    1
LOOKUP_TABLE default
0.0029178698369537
0.002218892829056517
0.005659385992671329
0.005164184974107996
0.006145661513089006
0.007256256833743329
0.008487371678609039
0.009089332184664829
0.01000954671990921
0.01159182485189628
0.01269654312527538
0.0156831766216388
0.0121271306858127
0.01390568608086575
0.01409754145968806
0.01633993387255301
0.01736973959934245
0.02030722800332985
0.02142416887659068
0.02517755918083125
0.01664238008381655
0.01932248190324837
0.01854821372022756
0.02138498199453949
0.02183613910199632
0.02482176028662562
0.02587263678049466
0.02911879977417716
0.030205084310319
0.0338333177330546
0.02175273532758401
0.02501389966815726
0.02336226507132025
0.02657872457601252
0.02624307882829585
0.02926220895536933
0.02985570771941589
0.03271202435287966
0.03375363968445368
0.03657580219177756
0.03762943525382828
0.04054723111206659
0.02714716753808965
0.03069831070709156
0.0283758904003749
0.03174549239933661
0.0306299455819525
0.03359838834711768
0.03353213463951035
0.03605984314228791
0.03672386181645849
0.03889666419319161
0.03991730481307009
0.04186672158356246
0.0428951334198175
0.0447435503662944
0.03255183313199973
0.03615090794994479
0.03338803124768701
0.03671722719271164
0.03493934484977606
0.03775933596851001
0.03698463547381454
0.03920216627096454
0.03928614673237349
0.04092909414189087
0.04161940329617302
0.04278399299904393
0.04378503656647132
0.04459049857118506
0.04560539769434065
0.04616576418459872
0.03774337019450416
0.04119723143173053
0.03821236708718331
0.04134837859657677
0.03907355746791693
0.04165895301599341
0.04022784188635257
0.04213569973476338
0.04155280052992482
0.04275456359958103
0.04290865119362295
0.04344706754090145
0.04414341454331044
0.04410481516814078
0.04509798399965545
0.04459050281655669
0.04560539601988038
0.04474354772432806
0.04254632340904748
0.04570505130445765
0.04269253048399212
0.04551900791659873
0.04292847746984956
0.04521058611571895
0.04323649219052331
0.04483002856160041
0.043584608430864
0.04441428935362454
0.04391472573356394
0.04396561468814617
0.04413945523479865
0.04344707434241761
0.04414340838409178
0.04278398233569505
0.04378504431724253
0.04186673067774424
0.04289512987565294
0.04054722791907502
0.04682569526312062
0.04957640191503785
0.04670281250226407
0.04913310032684301
0.04640719586166927
0.04833248031722087
0.04596575978063603
0.04723828830561346
0.04540391766939172
0.04591605044547303
0.04472805389813451
0.04441429523725968
0.04391471903171282
0.04275455187154707
0.04290866339322712
0.04092910872202993
0.04161938996443946
0.03889665135383941
0.03991731420433424
0.03657580983024127
0.03762943234248921
0.03383331569913058
0.05047916274671277
0.05274073900138457
0.05014405471469415
0.05211530720344607
0.04942390111982665
0.05094942037953077
0.04836054180583452
0.04930070089266279
0.04700544584497523
0.04723829187186558
0.04540391291055982
0.04483002015814774
0.04358461889227923
0.04213571231586999
0.04155278595966909
0.03920215216179573
0.03928616170852976
0.03605985539471571
0.03672385036795734
0.03271201626684513
0.03375364568566241
0.02911880347770109
0.03020508293549989
0.02517755839837207
0.05342936103295425
0.05514913861873965
0.05293949190142649
0.0544082729990549
0.05190443373678903
0.05299379424933911
0.0503604067694726
0.05094942175599802
0.04836053945075824
0.04833247612362815
0.04596576601475808
0.04521059364213391
0.04323648187179722
0.04165894300395927
0.04022785473871213
0.0377593464716667
0.03698462284667048
0.03359837948453328
0.0335321444286564
0.02926221488320402
0.0298557019444499
0.02482175725051079
0.02587263910492876
0.02030722907646224
0.0214241684880148
0.01568317644736353
0.05561643761184158
0.05677065454207357
0.05503158090172195
0.05597006859328176
0.05378816502530648
0.05440827281594444
0.05190443325606638
0.05211530645046417
0.04942390339558841
0.04913310292772503
0.0464071909041131
0.04551900324881627
0.04292848497879317
0.04134838463745193
0.03907354860584308
0.03671722105463642
0.03493935326034017
0.03174549741736191
0.03062993912024947
0.0265787212754739
0.02624308275349977
0.0213849837019994
0.02183613729413793
0.01633993321144648
0.01736974014659265
0.01159182502186447
0.01269654306462683
0.007256256813886128
0.05698740875725066
0.05758448338831306
0.05638286855173691
0.0567706524312406
0.05503158145595613
0.05514914136677513
0.05293949153782986
0.0527407366949858
0.05014405398249915
0.04957640284295637
0.0467028148799403
0.04570505208980725
0.04269252656233937
0.04119722932800646
0.03821237178173347
0.03615091052667164
0.03338802681787761
0.03069830847544714
0.02837589377838064
0.02501390115297875
0.02336226300516671
0.01932248114675605
0.0185482146997
0.01390568636570427
0.01409754112063476
0.009089332114360834
0.01000954679390564
0.00516418498389078
0.006145661507675364
0.002218892830110747
0.05748933026144042
0.05698740754365907
0.05561643864192063
0.05342936018728186
0.05047916358352527
0.04682569420949742
0.0425463247961468
0.03774336857519348
0.03255183472938944
0.02714716626282732
0.0217527361464555
0.01664237966567106
0.01212713084500528
0.008487371639221086
0.005659385999765711
0.002917869836666555
0.002917869837694122
0.002218892830093535
0.006145661515986867
0.007256256843261469
0.005659385991135796
0.005164184970946824
0.01269654315487854
0.0156831767255408
0.01000954668707631
0.01159182476265583
0.008487371695959258
0.009089332218345925
0.02142416911974885
0.02517755981227593
0.01736973926983407
0.02030722725289295
0.01409754164819687
0.01633993428921007
0.01212713060891722
0.01390568592051424
0.03020508553411189
0.03383332011407671
0.02587263489873984
0.02911879619804132
0.02183614042460362
0.02482176287410596
0.01854821305017051
0.02138498065789555
0.01664238035725167
0.01932248246304521
0.03762943917150532
0.04054723708916563
0.03375363276854839
0.0365757911847654
0.02985571357815962
0.03271203416590943
0.02624307517398786
0.02926220253238042
0.02336226690400304
0.02657872793429865
0.02175273460527134
0.02501389818715226
0.04289514186968777
0.04474356082673814
0.03991728753810687
0.04186669841784173
0.03672387914873772
0.03889668900472158
0.03353212167877815
0.03605982341322199
0.03062995347127604
0.03359840107265485
0.02837588639301755
0.0317454855419011
0.02714716912342935
0.03069831393544328
0.04560541038782929
0.04616577723076595
0.04378500632224252
0.04459046424665271
0.04161943895388732
0.04278403661395878
0.03928611521141526
0.04092905283352281
0.03698465834386599
0.03920219829648482
0.03493933077792746
0.03775931492692683
0.03338803862927921
0.03671723902189226
0.03255183022299359
0.0361509020646915
0.04560540947838208
0.04474355939199502
0.04509794624888551
0.04459046655316397
0.04414346676349296
0.04410486957883056
0.04290859701089052
0.04344700667884672
0.04155284684741707
0.04275461951834941
0.04022780805621418
0.04213565590413978
0.03907357885619299
0.04165898277353268
0.03821235546010348
0.04134836108498041
0.0377433747688056
0.04119724060804119
0.04289513994474955
0.04054723535531185
0.04378501053307859
0.04186670335849037
0.0441434634184129
0.04278403082292858
0.04413938829821192
0.04344701037255112
0.04391479277227703
0.0439656839517699
0.04358455090717897
0.04441422524638656
0.04323653521310812
0.04483008024315955
0.04292844930486664
0.04521054960417667
0.04269254639006375
0.04551903042148569
0.04254631719988042
0.04570503894552674
0.03762943759064303
0.03383331901012726
0.03991729263967105
0.03657579533412923
0.04161943171381569
0.03889668203257591
0.04290860363564085
0.04092906075077258
0.04391478913524655
0.04275461315388621
0.04472798351675428
0.04441422843699624
0.04540397939448752
0.04591611391678171
0.04596571208842505
0.04723823521535061
0.04640722830526663
0.04833251948487519
0.04670279348659145
0.04913307509120737
0.0468257025923597
0.04957641638181071
0.03020508478835103
0.02517755938819328
0.03375363602819997
0.02911879820952275
0.03672387293201265
0.03271202977540753
0.03928612334269305
0.03605983006456833
0.04155283894148074
0.03920219064153361
0.04358455657964843
0.04213566272517104
0.04540397681740562
0.0448300756925914
0.04700538800551977
0.04723823714088107
0.04836058820177981
0.04930074863552122
0.04942386831232712
0.05094938359393381
0.05014407463271957
0.05211533191596034
0.05047915521438301
0.0527407242904482
0.02142416890953455
0.01568317663151874
0.02587263616126528
0.02030722783584178
0.02985571044284725
0.02482176122596625
0.0335321269916463
0.02926220574796304
0.03698465149417505
0.0335983962660235
0.04022781502263624
0.03775932061748079
0.04323652962785214
0.04165897735643734
0.04596571545275349
0.04521055366443264
0.04836058693508996
0.04833251723077397
0.05036036718819171
0.05094938432466589
0.05190446280062479
0.05299382432031397
0.05293947369593061
0.05440825202651682
0.0534293677235186
0.05514915149711035
0.01269654312240666
0.007256256832422731
0.01736973956719939
0.01159182485515902
0.02183613944349554
0.01633993393089007
0.02624307730224312
0.02138498158235236
0.03062994996752046
0.02657872614551331
0.03493933533175318
0.03174548825440966
0.03907357406476744
0.03671723570784018
0.04292845335184033
0.04134836433423113
0.04640722564501455
0.04551902792404418
0.04942386951567455
0.04913307646049248
0.05190446255618564
0.05211533154048761
0.05378814277975127
0.05440825190738002
0.05503159517810799
0.05597008359912273
0.05561643259585453
0.05677064510751639
0.006145661512647289
0.002218892830203404
0.01000954672747687
0.005164184976230663
0.01409754146442206
0.009089332181016367
0.01854821357961846
0.01390568607401912
0.02336226578484707
0.01932248205676463
0.02837588821608294
0.02501389898064132
0.03338803624020364
0.0306983127452831
0.0382123579799326
0.036150903423475
0.04269254429915783
0.0411972395241032
0.04670279473074
0.04570503929543509
0.050144074277484
0.04957641696791631
0.05293947346250626
0.05274072295662969
0.0550315954965757
0.05514915305306958
0.05638285941148485
0.05677064392332969
0.05698741169761831
0.05758448876169416
0.002917869837738195
0.005659385994963558
0.008487371675264499
0.01212713069438409
0.01664238013295288
0.02175273504327183
0.02714716843946
0.03255183107526866
0.0377433739051986
0.04254631793801482
0.04682570202984272
0.05047915566611491
0.05342936725473581
0.05561643317128599
0.05698741101842682
0.0574893296469197
0.05748933181627509
0.05758447912682182
0.05698740536979136
0.05677066224726295
0.05698740415036714
0.05677066012430781
0.05561644296586661
0.05514912853607332
0.05638287694473169
0.05597005513125995
0.0556164440041378
0.05514913132492432
0.05342935453591864
0.05274074957822524
0.05503156825713561
0.05440829051949164
0.05503156882654877
0.05440829031364623
0.05342935368462695
0.05274074718851315
0.05047916917589758
0.04957639286960925
0.05293950683412652
0.05211528884503375
0.05378818382876489
0.05299377156655227
0.05293950642813403
0.05211528814923269
0.0504791700094324
0.04957639392481172
0.04682569005796895
0.0457050574508523
0.05014404030327203
0.04913311586609818
0.05190441172610005
0.05094944375161693
0.05190441127597849
0.05094944509090549
0.05014403964626456
0.04913311837586708
0.04682568902282853
0.045705058080663
0.04254632672721405
0.04119722838447878
0.04670282374260366
0.04551899772621339
0.04942392191704351
0.04833246146161661
0.05036043198640641
0.04930067797352278
0.04942392412414509
0.04833245734487682
0.04670282601852034
0.04551899317030948
0.04254632807908501
0.04119722643810502
0.03774336871711752
0.03615090868821056
0.04269252380117343
0.04134838298100649
0.04640718047867653
0.04521059673276057
0.04836051915544101
0.047238304307229
0.04836051684240047
0.0472383078282743
0.04640717562202458
0.04521060415382931
0.04269251999179758
0.04134838890961392
0.03774336714536563
0.03615091113214623
0.03255183334342665
0.03069831110698626
0.0382123694912669
0.03671722707888936
0.04292848522786993
0.04165895105957076
0.04596577422780605
0.04483002384476897
0.04700546344041286
0.0459160443533657
0.04596578037886868
0.0448300155253261
0.04292849262029882
0.04165894116029869
0.03821237408225198
0.03671722103454394
0.032551834891081
0.03069830896900582
0.02714716787965382
0.02501389905030563
0.0333880316035423
0.03174549057090131
0.03907355662840151
0.03775933198990313
0.04323648858226271
0.04213569340062032
0.0454039114250141
0.044414281504804
0.04540390671323389
0.04441428734210858
0.04323647837232401
0.04213570587742502
0.03907354787684124
0.03775934239371956
0.03338802725441623
0.03174549552362382
0.02714716664654312
0.02501390048093606
0.0217527349357395
0.01932248230960904
0.02837588902357382
0.02657872647573501
0.03493934160654795
0.03359839425582723
0.0402278363574055
0.03920217895209984
0.04358460114760703
0.04275458333365485
0.04472804596341042
0.04396563752812491
0.04358461152438961
0.04275457168410205
0.04022784909744475
0.03920216494345229
0.03493934992934224
0.03359838546588356
0.0283758923489456
0.02657872321295117
0.02175273572588544
0.01932248157825672
0.01664238032102683
0.01390568590477451
0.02336226628166411
0.02138498080955835
0.03062994970179319
0.02926220417327607
0.03698464528627109
0.03605983034960929
0.04155281761481409
0.04092907010658299
0.04391474813215414
0.0434470348037673
0.04391474147492232
0.04344704156617459
0.04155280314504598
0.04092908460037151
0.03698463275399301
0.03605984252421454
0.03062994329843539
0.02926221005750903
0.02336226424388847
0.0213849824992878
0.01664237991836424
0.0139056861806088
0.01212713058763691
0.009089332233152603
0.01854821304661758
0.01633993436110087
0.02624307582359045
0.02482176289708266
0.033532125591188
0.03271203304240856
0.03928612746059433
0.03889668388147532
0.04290862120538051
0.04278402472338568
0.04413942052229543
0.04410485230289515
0.04290863333377723
0.04278401411610031
0.03928614234542269
0.03889667111219281
0.03353213531486486
0.03271202500397147
0.0262430797169313
0.02482175988170429
0.01854821401371058
0.01633993370637601
0.01212713074036643
0.009089332165133544
0.008487371704568293
0.005164184968109093
0.01409754170573836
0.01159182472410919
0.02183614056988931
0.02030722707744442
0.02985571329539817
0.02911879589632911
0.0367238763317396
0.03657579152329376
0.0416194302347638
0.04186670114284605
0.04414345105365791
0.04459047045454092
0.04414344492666821
0.04459047467924408
0.04161941697432912
0.04186671019181552
0.0367238649476171
0.03657579912199047
0.02985570755622555
0.0291187995788683
0.02183613877566624
0.02030722814340881
0.01409754137073323
0.01159182489244626
0.00848737166712765
0.005164184977559647
0.005659385989921834
0.00221889282887093
0.01000954666507328
0.007256256846602555
0.01736973915960158
0.01568317677196889
0.02587263458623655
0.02517755996654233
0.03375363255886499
0.03383332032857891
0.03991728884682023
0.04054723700259298
0.04378501096514973
0.04474355988188177
0.04509795407558487
0.04616577533201515
0.04378501867791759
0.04474355725259054
0.03991729819053511
0.0405472338253651
0.03375363852776268
0.03383331830523661
0.02587263689668917
0.02517755918853257
0.01736973970273389
0.01568317659886215
0.01000954673815074
0.007256256826908446
0.005659385996660146
0.002218892829932023
0.002917869837148203
0.006145661514813839
0.0126965431723602
0.02142416922103315
0.0302050857673538
0.03762943936190136
0.04289514145349724
0.04560540886136433
0.04560540719481233
0.04289513792642347
0.03762943646524434
0.03020508440003511
0.02142416883489325
0.01269654311218837
0.006145661509455983
0.002917869836876777
0.002917869837075067
0.002218892829588178
0.005659385985170392
0.005164184958789416
0.006145661519027268
0.0072562568676756
0.008487371744963361
0.009089332310692149
0.01000954658073663
0.01159182451457767
0.01269654324528808
0.01568317701337495
0.01212713041676411
0.01390568557540294
0.01409754212488879
0.01633993523519139
0.01736973842194381
0.02030722547585389
0.02142416977962653
0.025177561306643
0.01664238082058743
0.0193224832652144
0.01854821173588953
0.02138497834735171
0.02183614325140385
0.02482176788498816
0.02587263071098037
0.02911878884107699
0.03020508829769895
0.03383332499185587
0.02175273381741545
0.02501389692608151
0.02336226929672408
0.02657873170279697
0.0262430693560172
0.02926219330699769
0.02985572420741897
0.03271205063310553
0.03375361933707608
0.03657577122053968
0.0376294468578964
0.040547248001981
0.02714716987934534
0.03069831490687461
0.02837588354978989
0.03174548170140357
0.03062996157419906
0.03359841265261995
0.03353210437823018
0.03605979912359893
0.03672390643452619
0.03889672572106554
0.03991725788247021
0.04186666077006646
0.04289515666287967
0.04474357817717406
0.0325518304058842
0.0361509030476558
0.03338803978573918
0.03671723953894562
0.03493932401380335
0.03775930660032555
0.03698467735094667
0.03920222261852707
0.03928607900029905
0.04092900811778751
0.04161948872990257
0.04278409468151877
0.04378495956653718
0.04459041336497908
0.04560543059223034
0.04616579721592528
0.03774337235032069
0.04119723552986217
0.03821235917833571
0.04134836818143479
0.0390735783973563
0.04165898045268836
0.04022779667278425
0.04213564309522838
0.04155287913257261
0.04275465624840584
0.04290854187493841
0.04344694720519113
0.0441435329206134
0.04410493617877777
0.04509789259110075
0.04459041656763738
0.04560542932877651
0.04474357618303798
0.04254632292353925
0.04570504959946561
0.04269253498199561
0.04551901282973478
0.04292846226143598
0.04521056767847952
0.04323652998593436
0.0448300728197967
0.04358453661541255
0.04441421044701083
0.04391483373440124
0.04396572496350144
0.04413932602783516
0.04344695232954037
0.0441435282768949
0.0427840866412771
0.04378496541406118
0.04186666763094398
0.04289515398710661
0.04054724559074217
0.04682569344703998
0.04957640045661055
0.04670281317184458
0.04913310245637634
0.04640720144449041
0.04833248629832675
0.04596573716654499
0.04723826339643002
0.04540396883000371
0.04591610307838527
0.0447279692152593
0.04441421487720445
0.04391482868846057
0.04275464741761199
0.04290855106618106
0.04092901910273071
0.04161947867889679
0.03889671604229493
0.03991726496673658
0.03657577698278561
0.03762944465908163
0.03383332345682644
0.05047916661642062
0.05274074306751725
0.05014404911369842
0.05211529929612131
0.04942390516790907
0.05094942521861526
0.04836054798177251
0.0493007076204011
0.04700541946711103
0.04723826610680671
0.04540396523597218
0.04483006647421309
0.0435845444938003
0.04213565257029599
0.0415528681626988
0.03920221199718935
0.03928609028198764
0.03605980835259672
0.03672389780427657
0.03271204453971268
0.03375362386285349
0.02911879163326618
0.03020508726146549
0.02517756071826098
0.05342935614710174
0.05514913351881912
0.0529395003017895
0.05440828332110312
0.05190442353122727
0.05299378370487642
0.05036041234046595
0.05094942633836128
0.04836054615399944
0.04833248304489812
0.04596574190916314
0.04521057340739445
0.04323652219196024
0.04165897289041288
0.04022780635331449
0.03775931450960001
0.03698466784651218
0.03359840598626963
0.03353211174874969
0.0292621977667148
0.02985571985688719
0.02482176559989979
0.02587263246311983
0.0203072262838808
0.02142416948826159
0.01568317688287423
0.05561644216616433