# vtk DataFile Version 2.0
Test example
ASCII
DATASET POLYDATA
POINTS  41  double
0  0  0
0  1  0
0.5  0.5  0
1  0  0
1  1  0
0  0.25  0
0  0.5  0
0  0.75  0
0.125  0.125  0
0.25  0.25  0
0.375  0.375  0
0.25  0  0
0.5  0  0
0.75  0  0
0.125  0.875  0
0.25  0.75  0
0.375  0.625  0
0.25  1  0
0.5  1  0
0.75  1  0
0.625  0.375  0
0.75  0.25  0
0.875  0.125  0
0.625  0.625  0
0.75  0.75  0
0.875  0.875  0
1  0.25  0
1  0.5  0
1  0.75  0
0.125  0.375  0
0.25  0.5  0
0.125  0.625  0
0.375  0.125  0
0.625  0.125  0
0.5  0.25  0
0.75  0.5  0
0.875  0.375  0
0.875  0.625  0
0.375  0.875  0
0.5  0.75  0
0.625  0.875  0
POLYGONS  64  256
3           0         8         5
3           8        29         5
3           8         9        29
3           9        30        29
3           5        29         6
3          29        31         6
3           9        10        30
3          10        16        30
3          29        30        31
3          30        15        31
3           6        31         7
3          31        14         7
3          10         2        16
3          30        16        15
3          31        15        14
3           7        14         1
3           0        11         8
3          11        32         8
3          11        12        32
3          12        33        32
3           8        32         9
3          32        34         9
3          12        13        33
3          13        22        33
3          32        33        34
3          33        21        34
3           9        34        10
3          34        20        10
3          13         3        22
3          33        22        21
3          34        21        20
3          10        20         2
3           2        20        23
3          20        35        23
3          20        21        35
3          21        36        35
3          23        35        24
3          35        37        24
3          21        22        36
3          22        26        36
3          35        36        37
3          36        27        37
3          24        37        25
3          37        28        25
3          22         3        26
3          36        26        27
3          37        27        28
3          25        28         4
3           1        14        17
3          14        38        17
3          14        15        38
3          15        39        38
3          17        38        18
3          38        40        18
3          15        16        39
3          16        23        39
3          38        39        40
3          39        24        40
3          18        40        19
3          40        25        19
3          16         2        23
3          39        23        24
3          40        24        25
3          19        25         4
CELL_DATA    64
SCALARS    strainEnergy    float    1
LOOKUP_TABLE default
0
0
0
0
0
0
0
0
0
0
0
0
0
0
0
0
0
0
0
0
0
0
0
0
0
0
0
0
0
0
0
0
0
0
0
0
0
0
0
0
0
0
0
0
0
0
0
0
0
0
0
0
0
0
0
0
0
0
0
0
0
0
0
0

SCALARS    meanCurvature    float    1
LOOKUP_TABLE meanCurvature    
0
0
0
0
0
0
0
0
0
0
0
0
0
0
0
0
0
0
0
0
0
0
0
0
0
0
0
0
0
0
0
0
0
0
0
0
0
0
0
0
0
0
0
0
0
0
0
0
0
0
0
0
0
0
0
0
0
0
0
0
0
0
0
0


POINT_DATA 41
VECTORS displacements float
0	0	0
0	0	0
0	0	0
0	0	0
0	0	0
0	0	0
0	0	0
0	0	0
0	0	0
0	0	0
0	0	0
0	0	0
0	0	0
0	0	0
0	0	0
0	0	0
0	0	0
0	0	0
0	0	0
0	0	0
0	0	0
0	0	0
0	0	0
0	0	0
0	0	0
0	0	0
0	0	0
0	0	0
0	0	0
0	0	0
0	0	0
0	0	0
0	0	0
0	0	0
0	0	0
0	0	0
0	0	0
0	0	0
0	0	0
0	0	0
0	0	0

VECTORS forces float
0	0	-0.01041666666666667
0	0	0.03125
0	0	-0.02083333333333334
0	0	0.03125
0	0	0.07291666666666667
0	0	-0.015625
0	0	-0.015625
0	0	-0.015625
0	0	-0.03125
0	0	-0.03125
0	0	-0.03125
0	0	-0.015625
0	0	-0.015625
0	0	-0.015625
0	0	-0.03124999999999999
0	0	-0.03125
0	0	-0.03124999999999999
0	0	0.06770833333333334
0	0	0.06770833333333333
0	0	0.06770833333333334
0	0	-0.03125
0	0	-0.03124999999999999
0	0	-0.03125
0	0	-0.03124999999999998
0	0	-0.03124999999999999
0	0	-0.03125
0	0	0.06770833333333334
0	0	0.06770833333333333
0	0	0.06770833333333334
0	0	-0.03125
0	0	-0.03125
0	0	-0.03125
0	0	-0.03125
0	0	-0.03125
0	0	-0.03125
0	0	-0.03125
0	0	-0.03125000000000001
0	0	-0.03125
0	0	-0.03124999999999998
0	0	-0.03125000000000001
0	0	-0.03124999999999999
