# vtk DataFile Version 3.0
vtk output
ASCII
DATASET POLYDATA
POINTS 932 float
1.618034 -0.000000 -1.000000 
1.571515 0.121788 -0.838710 
1.598097 0.052195 -0.645161 
1.524997 0.243575 -0.677419 
1.551579 0.173982 -0.483871 
1.451896 0.434955 -0.709677 
1.604743 0.034796 -0.096774 
1.578161 0.104389 -0.290323 
1.505060 0.295770 -0.322581 
1.531642 0.226177 -0.129032 
1.478478 0.365363 -0.516129 
1.405377 0.556743 -0.548387 
1.431959 0.487150 -0.354839 
1.584806 0.086991 0.258065 
1.611388 0.017398 0.451613 
1.558224 0.156584 0.064516 
1.485123 0.347964 0.032258 
1.511706 0.278371 0.225806 
1.458541 0.417557 -0.161290 
1.385441 0.608938 -0.193548 
1.412023 0.539345 0.000000 
1.358858 0.678530 -0.387097 
1.285758 0.869911 -0.419355 
1.312340 0.800318 -0.225806 
1.564870 0.139186 0.612903 
1.591452 0.069593 0.806452 
1.538288 0.208779 0.419355 
1.465187 0.400159 0.387097 
1.491769 0.330566 0.580645 
1.438605 0.469752 0.193548 
1.365504 0.661132 0.161290 
1.392086 0.591539 0.354839 
1.338922 0.730725 -0.032258 
1.265821 0.922105 -0.064516 
1.292403 0.852513 0.129032 
1.239239 0.991698 -0.258065 
1.192720 1.113486 -0.096774 
1.618034 0.000000 1.000000 
1.518351 0.260973 0.774194 
1.418668 0.521946 0.548387 
1.345567 0.713327 0.516129 
1.318985 0.782920 0.322581 
1.245884 0.974300 0.290323 
1.219302 1.043893 0.096774 
1.146202 1.235273 0.064516 
1.172784 1.165680 0.258065 
1.119619 1.304866 -0.129032 
1.073101 1.426654 0.032258 
1.000000 1.618034 0.000000 
1.469664 0.144862 -1.003508 
1.466156 0.293231 -0.858646 
1.321295 0.289723 -1.007016 
1.317787 0.438093 -0.862154 
1.176433 0.286215 -1.155385 
1.310771 0.734832 -0.572431 
1.314279 0.586463 -0.717293 
1.169417 0.582955 -0.865662 
1.165909 0.731324 -0.720800 
1.172925 0.434585 -1.010524 
1.028063 0.431077 -1.158893 
1.024556 0.579447 -1.014032 
1.158893 1.028063 -0.431077 
1.155385 1.176433 -0.286215 
1.162401 0.879694 -0.575939 
1.017540 0.876186 -0.724308 
1.014032 1.024556 -0.579447 
1.021048 0.727816 -0.869170 
0.876186 0.724308 -1.017540 
0.872678 0.872678 -0.872678 
0.879694 0.575939 -1.162401 
0.734832 0.572431 -1.310771 
0.731324 0.720800 -1.165909 
1.007016 1.321295 -0.289723 
1.003508 1.469664 -0.144862 
1.010524 1.172925 -0.434585 
0.865662 1.169417 -0.582955 
0.862154 1.317787 -0.438093 
0.869170 1.021048 -0.727816 
0.724308 1.017540 -0.876186 
0.720800 1.165909 -0.731324 
0.727816 0.869170 -1.021048 
0.582955 0.865662 -1.169417 
0.579447 1.014032 -1.024556 
0.586463 0.717293 -1.314279 
0.438093 0.862154 -1.317787 
0.858646 1.466156 -0.293231 
0.717293 1.314279 -0.586463 
0.572431 1.310771 -0.734832 
0.575939 1.162401 -0.879694 
0.431077 1.158893 -1.028063 
0.434585 1.010524 -1.172925 
0.289723 1.007016 -1.321295 
0.286215 1.155385 -1.176433 
0.293231 0.858646 -1.466156 
0.144862 1.003508 -1.469664 
0.000000 1.000000 -1.618034 
0.838710 1.571515 -0.121788 
0.645161 1.598097 -0.052195 
0.677419 1.524997 -0.243575 
0.483871 1.551579 -0.173982 
0.709677 1.451896 -0.434955 
0.096774 1.604743 -0.034796 
0.290323 1.578161 -0.104389 
0.322581 1.505060 -0.295770 
0.129032 1.531642 -0.226177 
0.516129 1.478478 -0.365363 
0.548387 1.405377 -0.556743 
0.354839 1.431959 -0.487150 
-0.258065 1.584806 -0.086991 
-0.451613 1.611388 -0.017398 
-0.064516 1.558224 -0.156584 
-0.032258 1.485123 -0.347964 
-0.225806 1.511706 -0.278371 
0.161290 1.458541 -0.417557 
0.193548 1.385441 -0.608938 
-0.000000 1.412023 -0.539345 
0.387097 1.358858 -0.678530 
0.419355 1.285758 -0.869911 
0.225806 1.312340 -0.800318 
-0.612903 1.564870 -0.139186 
-0.806452 1.591452 -0.069593 
-0.419355 1.538288 -0.208779 
-0.387097 1.465187 -0.400159 
-0.580645 1.491769 -0.330566 
-0.193548 1.438605 -0.469752 
-0.161290 1.365504 -0.661132 
-0.354839 1.392086 -0.591539 
0.032258 1.338922 -0.730725 
0.064516 1.265821 -0.922105 
-0.129032 1.292403 -0.852513 
0.258065 1.239239 -0.991698 
0.096774 1.192720 -1.113486 
-1.000000 1.618034 0.000000 
-0.774194 1.518351 -0.260973 
-0.548387 1.418668 -0.521946 
-0.516129 1.345567 -0.713327 
-0.322581 1.318985 -0.782920 
-0.290323 1.245884 -0.974300 
-0.096774 1.219302 -1.043893 
-0.064516 1.146202 -1.235273 
-0.258065 1.172784 -1.165680 
0.129032 1.119619 -1.304866 
-0.032258 1.073101 -1.426654 
0.806452 1.591452 0.069593 
0.774194 1.518351 0.260973 
0.612903 1.564870 0.139186 
0.580645 1.491769 0.330566 
0.451613 1.611388 0.017398 
0.516129 1.345567 0.713327 
0.548387 1.418668 0.521946 
0.387097 1.465187 0.400159 
0.354839 1.392086 0.591539 
0.419355 1.538288 0.208779 
0.258065 1.584806 0.086991 
0.225806 1.511706 0.278371 
0.290323 1.245884 0.974300 
0.258065 1.172784 1.165680 
0.322581 1.318985 0.782920 
0.161290 1.365504 0.661132 
0.129032 1.292403 0.852513 
0.193548 1.438605 0.469752 
0.032258 1.485123 0.347964 
0.000000 1.412023 0.539345 
0.064516 1.558224 0.156584 
-0.096774 1.604743 0.034796 
-0.129032 1.531642 0.226177 
0.064516 1.146202 1.235273 
0.032258 1.073101 1.426654 
0.096774 1.219302 1.043893 
-0.064516 1.265821 0.922105 
-0.096774 1.192720 1.113486 
-0.032258 1.338922 0.730725 
-0.193548 1.385441 0.608938 
-0.225806 1.312340 0.800318 
-0.161290 1.458541 0.417557 
-0.322581 1.505060 0.295770 
-0.354839 1.431959 0.487150 
-0.290323 1.578161 0.104389 
-0.483871 1.551579 0.173982 
-0.000000 1.000000 1.618034 
-0.129032 1.119619 1.304866 
-0.258065 1.239239 0.991698 
-0.419355 1.285758 0.869911 
-0.387097 1.358858 0.678530 
-0.548387 1.405377 0.556743 
-0.516129 1.478478 0.365363 
-0.677419 1.524997 0.243575 
-0.709677 1.451896 0.434955 
-0.645161 1.598097 0.052195 
-0.838710 1.571515 0.121788 
1.501922 0.164798 0.951313 
1.337124 0.213485 1.067425 
1.385811 0.329597 0.902627 
1.221013 0.378283 1.018738 
1.434498 0.445708 0.737828 
0.891416 0.475657 1.250961 
1.056214 0.426970 1.134850 
1.104901 0.543081 0.970051 
0.940103 0.591768 1.086163 
1.269699 0.494395 0.853940 
1.318386 0.610506 0.689142 
1.153588 0.659193 0.805253 
0.610506 0.689142 1.318386 
0.445708 0.737828 1.434498 
0.775305 0.640455 1.202275 
0.823991 0.756566 1.037476 
0.659193 0.805253 1.153588 
0.988790 0.707880 0.921365 
1.037476 0.823991 0.756566 
0.872678 0.872678 0.872678 
1.202275 0.775305 0.640455 
1.250961 0.891416 0.475657 
1.086163 0.940103 0.591768 
0.329597 0.902627 1.385811 
0.164798 0.951313 1.501922 
0.494395 0.853940 1.269699 
0.543081 0.970051 1.104901 
0.378283 1.018738 1.221013 
0.707880 0.921365 0.988790 
0.756566 1.037476 0.823991 
0.591768 1.086163 0.940103 
0.921365 0.988790 0.707880 
0.970051 1.104901 0.543081 
0.805253 1.153588 0.659193 
1.134850 1.056214 0.426970 
1.018738 1.221013 0.378283 
0.213485 1.067425 1.337124 
0.426970 1.134850 1.056214 
0.475657 1.250961 0.891416 
0.640455 1.202275 0.775305 
0.689142 1.318386 0.610506 
0.853940 1.269699 0.494395 
0.902627 1.385811 0.329597 
0.737828 1.434498 0.445708 
1.067425 1.337124 0.213485 
0.951313 1.501922 0.164798 
-0.164798 0.951313 -1.501922 
-0.213485 1.067425 -1.337124 
-0.329597 0.902627 -1.385811 
-0.378283 1.018738 -1.221013 
-0.445708 0.737828 -1.434498 
-0.475657 1.250961 -0.891416 
-0.426970 1.134850 -1.056214 
-0.543081 0.970051 -1.104901 
-0.591768 1.086163 -0.940103 
-0.494395 0.853940 -1.269699 
-0.610506 0.689142 -1.318386 
-0.659193 0.805253 -1.153588 
-0.689142 1.318386 -0.610506 
-0.737828 1.434498 -0.445708 
-0.640455 1.202275 -0.775305 
-0.756566 1.037476 -0.823991 
-0.805253 1.153588 -0.659193 
-0.707880 0.921365 -0.988790 
-0.823991 0.756566 -1.037476 
-0.872678 0.872678 -0.872678 
-0.775305 0.640455 -1.202275 
-0.891416 0.475657 -1.250961 
-0.940103 0.591768 -1.086163 
-0.902627 1.385811 -0.329597 
-0.951313 1.501922 -0.164798 
-0.853940 1.269699 -0.494395 
-0.970051 1.104901 -0.543081 
-1.018738 1.221013 -0.378283 
-0.921365 0.988790 -0.707880 
-1.037476 0.823991 -0.756566 
-1.086163 0.940103 -0.591768 
-0.988790 0.707880 -0.921365 
-1.104901 0.543081 -0.970051 
-1.153588 0.659193 -0.805253 
-1.056214 0.426970 -1.134850 
-1.221013 0.378283 -1.018738 
-1.067425 1.337124 -0.213485 
-1.134850 1.056214 -0.426970 
-1.250961 0.891416 -0.475657 
-1.202275 0.775305 -0.640455 
-1.318386 0.610506 -0.689142 
-1.269699 0.494395 -0.853940 
-1.385811 0.329597 -0.902627 
-1.434498 0.445708 -0.737828 
-1.337124 0.213485 -1.067425 
-1.501922 0.164798 -0.951313 
-1.618034 0.000000 -1.000000 
-1.003508 1.469664 0.144862 
-0.858646 1.466156 0.293231 
-1.007016 1.321295 0.289723 
-0.862154 1.317787 0.438093 
-1.155385 1.176433 0.286215 
-0.572431 1.310771 0.734832 
-0.717293 1.314279 0.586463 
-0.865662 1.169417 0.582955 
-0.720800 1.165909 0.731324 
-1.010524 1.172925 0.434585 
-1.158893 1.028063 0.431077 
-1.014032 1.024556 0.579447 
-0.431077 1.158893 1.028063 
-0.286215 1.155385 1.176433 
-0.575939 1.162401 0.879694 
-0.724308 1.017540 0.876186 
-0.579447 1.014032 1.024556 
-0.869170 1.021048 0.727816 
-1.017540 0.876186 0.724308 
-0.872678 0.872678 0.872678 
-1.162401 0.879694 0.575939 
-1.310771 0.734832 0.572431 
-1.165909 0.731324 0.720800 
-0.289723 1.007016 1.321295 
-0.144862 1.003508 1.469664 
-0.434585 1.010524 1.172925 
-0.582955 0.865662 1.169417 
-0.438093 0.862154 1.317787 
-0.727816 0.869170 1.021048 
-0.876186 0.724308 1.017540 
-0.731324 0.720800 1.165909 
-1.021048 0.727816 0.869170 
-1.169417 0.582955 0.865662 
-1.024556 0.579447 1.014032 
-1.314279 0.586463 0.717293 
-1.317787 0.438093 0.862154 
-0.293231 0.858646 1.466156 
-0.586463 0.717293 1.314279 
-0.734832 0.572431 1.310771 
-0.879694 0.575939 1.162401 
-1.028063 0.431077 1.158893 
-1.172925 0.434585 1.010524 
-1.321295 0.289723 1.007016 
-1.176433 0.286215 1.155385 
-1.466156 0.293231 0.858646 
-1.469664 0.144862 1.003508 
-1.618034 0.000000 1.000000 
-1.591452 0.069593 -0.806452 
-1.518351 0.260973 -0.774194 
-1.564870 0.139186 -0.612903 
-1.491769 0.330566 -0.580645 
-1.611388 0.017398 -0.451613 
-1.345567 0.713327 -0.516129 
-1.418668 0.521946 -0.548387 
-1.465187 0.400159 -0.387097 
-1.392086 0.591539 -0.354839 
-1.538288 0.208779 -0.419355 
-1.584806 0.086991 -0.258065 
-1.511706 0.278371 -0.225806 
[...]
CELL_DATA 1860
SCALARS eletype float
LOOKUP_TABLE default

6 6 6 6 6 6
6 6 6 6 6 6
6 6 6 6 6 6
6 6 6 6 6 6
6 6 6 6 6 6
6 6 6 6 6 6
6 6 6 6 6 6
6 6 6 6 6 6
6 6 6 6 6 6
6 6 6 6 6 6
6 6 6 6 6 6
6 6 6 6 6 6
6 6 6 6 6 6
6 6 6 6 6 6
6 6 6 6 6 6
6 6 6 6 6 6
6 6 6 6 6 6
6 6 6 6 6 6
6 6 6 6 6 6
6 6 6 6 6 6
6 6 6 6 6 6
6 6 6 6 6 6
6 6 6 6 6 6
6 6 6 6 6 6
6 6 6 6 6 6
6 6 6 6 6 6
6 6 6 6 6 6
6 6 6 6 6 6
6 6 6 6 6 6
6 6 6 6 6 6
6 6 6 6 6 6
6 6 6 6 6 6
6 6 6 6 6 6
6 6 6 6 6 6
6 6 6 6 6 6
6 6 6 6 6 6
6 6 6 6 6 6
6 6 6 6 6 6
6 6 6 6 6 6
6 6 6 6 6 6
6 6 6 6 6 6
6 6 6 6 6 6
6 6 6 6 6 6
6 6 6 6 6 6
6 6 6 6 6 6
6 6 6 6 6 6
6 6 6 6 6 6
6 6 6 6 6 6
6 6 6 6 6 6
6 6 6 6 6 6
6 6 6 6 6 6
6 6 6 6 6 6
6 6 6 6 6 6
6 6 6 6 6 6
6 6 6 6 6 6
6 6 6 6 6 6
6 6 6 6 6 6
6 6 6 6 6 6
6 6 6 6 6 6
6 6 6 6 6 6
6 6 6 6 6 6
6 6 6 6 6 6
6 6 6 6 6 6
6 6 6 6 6 6
6 6 6 6 6 6
6 6 6 6 6 6
6 6 6 6 6 6
6 6 6 6 6 6
6 6 6 6 6 6
6 6 6 6 6 6
6 6 6 6 6 6
6 6 6 6 6 6
6 6 6 6 6 6
6 6 6 6 6 6
6 6 6 6 6 6
6 6 6 6 6 6
6 6 6 6 6 6
6 6 6 6 6 6
6 6 6 6 6 6
6 6 6 6 6 6
6 6 6 6 6 6
6 6 6 6 6 6
6 6 6 6 6 6
6 6 6 6 6 6
6 6 6 6 6 6
6 6 6 6 6 6
6 6 6 6 6 6
6 6 6 6 6 6
6 6 6 6 6 6
6 6 6 6 6 6
6 6 6 6 6 6
6 6 6 6 6 6
6 6 6 6 6 6
6 6 6 6 6 6
6 6 6 6 6 6
6 6 6 6 6 6
6 6 6 6 6 6
6 6 6 6 6 6
6 6 6 6 6 6
6 6 6 6 6 6
6 6 6 6 6 6
6 6 6 6 6 6
6 6 6 6 6 6
6 6 6 6 6 6
6 6 6 6 6 6
6 6 6 6 6 6
6 6 6 6 6 6
6 6 6 6 6 6
6 6 6 6 6 6
6 6 6 6 6 6
6 6 6 6 6 6
6 6 6 6 6 6
6 6 6 6 6 6
6 6 6 6 6 6
6 6 6 6 6 6
6 6 6 6 6 6
6 6 6 6 6 6
6 6 6 6 6 6
6 6 6 6 6 6
6 6 6 6 6 6
6 6 6 6 6 6
6 6 6 6 6 6
6 6 6 6 6 6
6 6 6 6 6 6
6 6 6 6 6 6
6 6 6 6 6 6
6 6 6 6 6 6
6 6 6 6 6 6
6 6 6 6 6 6
6 6 6 6 6 6
6 6 6 6 6 6
6 6 6 6 6 6
6 6 6 6 6 6
6 6 6 6 6 6
6 6 6 6 6 6
6 6 6 6 6 6
6 6 6 6 6 6
6 6 6 6 6 6
6 6 6 6 6 6
6 6 6 6 6 6
6 6 6 6 6 6
6 6 6 6 6 6
6 6 6 6 6 6
6 6 6 6 6 6
6 6 6 6 6 6
6 6 6 6 6 6
6 6 6 6 6 6
6 6 6 6 6 6
6 6 6 6 6 6
6 6 6 6 6 6
6 6 6 6 6 6
6 6 6 6 6 6
6 6 6 6 6 6
6 6 6 6 6 6
6 6 6 6 6 6
6 6 6 6 6 6
6 6 6 6 6 6
6 6 6 6 6 6
6 6 6 6 6 6
6 6 6 6 6 6
6 6 6 6 6 6
6 6 6 6 6 6
6 6 6 6 6 6
6 6 6 6 6 6
6 6 6 6 6 6
6 6 6 6 6 6
6 6 6 6 6 6
6 6 6 6 6 6
6 6 6 6 6 6
6 6 6 6 6 6
6 6 6 6 6 6
6 6 6 6 6 6
6 6 6 6 6 6
6 6 6 6 6 6
6 6 6 6 6 6
6 6 6 6 6 6
6 6 6 6 6 6
6 6 6 6 6 6
6 6 6 6 6 6
6 6 6 6 6 6
6 6 6 6 6 6
6 6 6 6 6 6
6 6 6 6 6 6
6 6 6 6 6 6
6 6 6 6 6 6
6 6 6 6 6 6
6 6 6 6 6 6
6 6 6 6 6 6
6 6 6 6 6 6
6 6 6 6 6 6
6 6 6 6 6 6
6 6 6 6 6 6
6 6 6 6 6 6
6 6 6 6 6 6
6 6 6 6 6 6
6 6 6 6 6 6
6 6 6 6 6 6
6 6 6 6 6 6
6 6 6 6 6 6
6 6 6 6 6 6
6 6 6 6 6 6
6 6 6 6 6 6
6 6 6 6 6 6
6 6 6 6 6 6
6 6 6 6 6 6
6 6 6 6 6 6
6 6 6 6 6 6
6 6 6 6 6 6
6 6 6 6 6 6
6 6 6 6 6 6
6 6 6 6 6 6
6 6 6 6 6 6
6 6 6 6 6 6
6 6 6 6 6 6
6 6 6 6 6 6
6 6 6 6 6 6
6 6 6 6 6 6
6 6 6 6 6 6
6 6 6 6 6 6
6 6 6 6 6 6
6 6 6 6 6 6
6 6 6 6 6 6
6 6 6 6 6 6
6 6 6 6 6 6
6 6 6 6 6 6
6 6 6 6 6 6
6 6 6 6 6 6
6 6 6 6 6 6
6 6 6 6 6 6
6 6 6 6 6 6
6 6 6 6 6 6
6 6 6 6 6 6
6 6 6 6 6 6
6 6 6 6 6 6
6 6 6 6 6 6
6 6 6 6 6 6
6 6 6 6 6 6
6 6 6 6 6 6
6 6 6 6 6 6
6 6 6 6 6 6
6 6 6 6 6 6
6 6 6 6 6 6
6 6 6 6 6 6
6 6 6 6 6 6
6 6 6 6 6 6
6 6 6 6 6 6
6 6 6 6 6 6
6 6 6 6 6 6
6 6 6 6 6 6
6 6 6 6 6 6
6 6 6 6 6 6
6 6 6 6 6 6
6 6 6 6 6 6
6 6 6 6 6 6
6 6 6 6 6 6
6 6 6 6 6 6
6 6 6 6 6 6
6 6 6 6 6 6
6 6 6 6 6 6
6 6 6 6 6 6
6 6 6 6 6 6
6 6 6 6 6 6
6 6 6 6 6 6
6 6 6 6 6 6
6 6 6 6 6 6
6 6 6 6 6 6
6 6 6 6 6 6
6 6 6 6 6 6
6 6 6 6 6 6
6 6 6 6 6 6
6 6 6 6 6 6
6 6 6 6 6 6
6 6 6 6 6 6
6 6 6 6 6 6
6 6 6 6 6 6
6 6 6 6 6 6
6 6 6 6 6 6
6 6 6 6 6 6
6 6 6 6 6 6
6 6 6 6 6 6
6 6 6 6 6 6
6 6 6 6 6 6
6 6 6 6 6 6
6 6 6 6 6 6
6 6 6 6 6 6
6 6 6 6 6 6
6 6 6 6 6 6
6 6 6 6 6 6
6 6 6 6 6 6
6 6 6 6 6 6
6 6 6 6 6 6
6 6 6 6 6 6
6 6 6 6 6 6
6 6 6 6 6 6
6 6 6 6 6 6
6 6 6 6 6 6
6 6 6 6 6 6
6 6 6 6 6 6
6 6 6 6 6 6
6 6 6 6 6 6
5 5 5 5 5
5 5 5 5 5
5 5 5 5 5
5 5 5 5 5
5 5 5 5 5
5 5 5 5 5
5 5 5 5 5
5 5 5 5 5
5 5 5 5 5
5 5 5 5 5
5 5 5 5 5
5 5 5 5 5
SCALARS capsomer float 1
LOOKUP_TABLE default

0 0 0 0 0 0
1 1 1 1 1 1
2 2 2 2 2 2
3 3 3 3 3 3
4 4 4 4 4 4
5 5 5 5 5 5
6 6 6 6 6 6
7 7 7 7 7 7
8 8 8 8 8 8
9 9 9 9 9 9
10 10 10 10 10 10
11 11 11 11 11 11
12 12 12 12 12 12
13 13 13 13 13 13
14 14 14 14 14 14
15 15 15 15 15 15
16 16 16 16 16 16
17 17 17 17 17 17
18 18 18 18 18 18
19 19 19 19 19 19
20 20 20 20 20 20
21 21 21 21 21 21
22 22 22 22 22 22
23 23 23 23 23 23
24 24 24 24 24 24
25 25 25 25 25 25
26 26 26 26 26 26
27 27 27 27 27 27
28 28 28 28 28 28
29 29 29 29 29 29
30 30 30 30 30 30
31 31 31 31 31 31
32 32 32 32 32 32
33 33 33 33 33 33
34 34 34 34 34 34
35 35 35 35 35 35
36 36 36 36 36 36
37 37 37 37 37 37
38 38 38 38 38 38
39 39 39 39 39 39
40 40 40 40 40 40
41 41 41 41 41 41
42 42 42 42 42 42
43 43 43 43 43 43
44 44 44 44 44 44
45 45 45 45 45 45
46 46 46 46 46 46
47 47 47 47 47 47
48 48 48 48 48 48
49 49 49 49 49 49
50 50 50 50 50 50
51 51 51 51 51 51
52 52 52 52 52 52
53 53 53 53 53 53
54 54 54 54 54 54
55 55 55 55 55 55
56 56 56 56 56 56
57 57 57 57 57 57
58 58 58 58 58 58
59 59 59 59 59 59
60 60 60 60 60 60
61 61 61 61 61 61
62 62 62 62 62 62
63 63 63 63 63 63
64 64 64 64 64 64
65 65 65 65 65 65
66 66 66 66 66 66
67 67 67 67 67 67
68 68 68 68 68 68
69 69 69 69 69 69
70 70 70 70 70 70
71 71 71 71 71 71
72 72 72 72 72 72
73 73 73 73 73 73
74 74 74 74 74 74
75 75 75 75 75 75
76 76 76 76 76 76
77 77 77 77 77 77
78 78 78 78 78 78
79 79 79 79 79 79
80 80 80 80 80 80
81 81 81 81 81 81
82 82 82 82 82 82
83 83 83 83 83 83
84 84 84 84 84 84
85 85 85 85 85 85
86 86 86 86 86 86
87 87 87 87 87 87
88 88 88 88 88 88
89 89 89 89 89 89
90 90 90 90 90 90
91 91 91 91 91 91
92 92 92 92 92 92
93 93 93 93 93 93
94 94 94 94 94 94
95 95 95 95 95 95
96 96 96 96 96 96
97 97 97 97 97 97
98 98 98 98 98 98
99 99 99 99 99 99
100 100 100 100 100 100
101 101 101 101 101 101
102 102 102 102 102 102
103 103 103 103 103 103
104 104 104 104 104 104
105 105 105 105 105 105
106 106 106 106 106 106
107 107 107 107 107 107
108 108 108 108 108 108
109 109 109 109 109 109
110 110 110 110 110 110
111 111 111 111 111 111
112 112 112 112 112 112
113 113 113 113 113 113
114 114 114 114 114 114
115 115 115 115 115 115
116 116 116 116 116 116
117 117 117 117 117 117
118 118 118 118 118 118
119 119 119 119 119 119
120 120 120 120 120 120
121 121 121 121 121 121
122 122 122 122 122 122
123 123 123 123 123 123
124 124 124 124 124 124
125 125 125 125 125 125
126 126 126 126 126 126
127 127 127 127 127 127
128 128 128 128 128 128
129 129 129 129 129 129
130 130 130 130 130 130
131 131 131 131 131 131
132 132 132 132 132 132
133 133 133 133 133 133
134 134 134 134 134 134
135 135 135 135 135 135
136 136 136 136 136 136
137 137 137 137 137 137
138 138 138 138 138 138
139 139 139 139 139 139
140 140 140 140 140 140
141 141 141 141 141 141
142 142 142 142 142 142
143 143 143 143 143 143
144 144 144 144 144 144
145 145 145 145 145 145
146 146 146 146 146 146
147 147 147 147 147 147
148 148 148 148 148 148
149 149 149 149 149 149
150 150 150 150 150 150
151 151 151 151 151 151
152 152 152 152 152 152
153 153 153 153 153 153
154 154 154 154 154 154
155 155 155 155 155 155
156 156 156 156 156 156
157 157 157 157 157 157
158 158 158 158 158 158
159 159 159 159 159 159
160 160 160 160 160 160
161 161 161 161 161 161
162 162 162 162 162 162
163 163 163 163 163 163
164 164 164 164 164 164
165 165 165 165 165 165
166 166 166 166 166 166
167 167 167 167 167 167
168 168 168 168 168 168
169 169 169 169 169 169
170 170 170 170 170 170
171 171 171 171 171 171
172 172 172 172 172 172
173 173 173 173 173 173
174 174 174 174 174 174
175 175 175 175 175 175
176 176 176 176 176 176
177 177 177 177 177 177
178 178 178 178 178 178
179 179 179 179 179 179
180 180 180 180 180 180
181 181 181 181 181 181
182 182 182 182 182 182
183 183 183 183 183 183
184 184 184 184 184 184
185 185 185 185 185 185
186 186 186 186 186 186
187 187 187 187 187 187
188 188 188 188 188 188
189 189 189 189 189 189
190 190 190 190 190 190
191 191 191 191 191 191
192 192 192 192 192 192
193 193 193 193 193 193
194 194 194 194 194 194
195 195 195 195 195 195
196 196 196 196 196 196
197 197 197 197 197 197
198 198 198 198 198 198
199 199 199 199 199 199
200 200 200 200 200 200
201 201 201 201 201 201
202 202 202 202 202 202
203 203 203 203 203 203
204 204 204 204 204 204
205 205 205 205 205 205
206 206 206 206 206 206
207 207 207 207 207 207
208 208 208 208 208 208
209 209 209 209 209 209
210 210 210 210 210 210
211 211 211 211 211 211
212 212 212 212 212 212
213 213 213 213 213 213
214 214 214 214 214 214
215 215 215 215 215 215
216 216 216 216 216 216
217 217 217 217 217 217
218 218 218 218 218 218
219 219 219 219 219 219
220 220 220 220 220 220
221 221 221 221 221 221
222 222 222 222 222 222
223 223 223 223 223 223
224 224 224 224 224 224
225 225 225 225 225 225
226 226 226 226 226 226
227 227 227 227 227 227
228 228 228 228 228 228
229 229 229 229 229 229
230 230 230 230 230 230
231 231 231 231 231 231
232 232 232 232 232 232
233 233 233 233 233 233
234 234 234 234 234 234
235 235 235 235 235 235
236 236 236 236 236 236
237 237 237 237 237 237
238 238 238 238 238 238
239 239 239 239 239 239
240 240 240 240 240 240
241 241 241 241 241 241
242 242 242 242 242 242
243 243 243 243 243 243
244 244 244 244 244 244
245 245 245 245 245 245
246 246 246 246 246 246
247 247 247 247 247 247
248 248 248 248 248 248
249 249 249 249 249 249
250 250 250 250 250 250
251 251 251 251 251 251
252 252 252 252 252 252
253 253 253 253 253 253
254 254 254 254 254 254
255 255 255 255 255 255
256 256 256 256 256 256
257 257 257 257 257 257
258 258 258 258 258 258
259 259 259 259 259 259
260 260 260 260 260 260
261 261 261 261 261 261
262 262 262 262 262 262
263 263 263 263 263 263
264 264 264 264 264 264
265 265 265 265 265 265
266 266 266 266 266 266
267 267 267 267 267 267
268 268 268 268 268 268
269 269 269 269 269 269
270 270 270 270 270 270
271 271 271 271 271 271
272 272 272 272 272 272
273 273 273 273 273 273
274 274 274 274 274 274
275 275 275 275 275 275
276 276 276 276 276 276
277 277 277 277 277 277
278 278 278 278 278 278
279 279 279 279 279 279
280 280 280 280 280 280
281 281 281 281 281 281
282 282 282 282 282 282
283 283 283 283 283 283
284 284 284 284 284 284
285 285 285 285 285 285
286 286 286 286 286 286
287 287 287 287 287 287
288 288 288 288 288 288
289 289 289 289 289 289
290 290 290 290 290 290
291 291 291 291 291 291
292 292 292 292 292 292
293 293 293 293 293 293
294 294 294 294 294 294
295 295 295 295 295 295
296 296 296 296 296 296
297 297 297 297 297 297
298 298 298 298 298 298
299 299 299 299 299 299
300 300 300 300 300
301 301 301 301 301
302 302 302 302 302
303 303 303 303 303
304 304 304 304 304
305 305 305 305 305
306 306 306 306 306
307 307 307 307 307
308 308 308 308 308
309 309 309 309 309
310 310 310 310 310
311 311 311 311 311
VECTORS shear_direction float
0.102186 -0.980928 0.165340
0.102186 -0.980928 0.165340
0.102186 -0.980928 0.165340
0.102186 -0.980928 0.165340
0.102186 -0.980928 0.165340
0.102186 -0.980928 0.165340
0.201244 -0.965916 0.162810
0.201244 -0.965916 0.162810
0.201244 -0.965916 0.162810
0.201244 -0.965916 0.162810
0.201244 -0.965916 0.162810
0.201244 -0.965916 0.162810
0.352479 -0.922803 0.155543
0.352479 -0.922803 0.155543
0.352479 -0.922803 0.155543
0.352479 -0.922803 0.155543
0.352479 -0.922803 0.155543
0.352479 -0.922803 0.155543
0.294503 -0.942358 0.158839
0.294503 -0.942358 0.158839
0.294503 -0.942358 0.158839
0.294503 -0.942358 0.158839
0.294503 -0.942358 0.158839
0.294503 -0.942358 0.158839
0.352479 -0.922803 0.155543
0.352479 -0.922803 0.155543
0.352479 -0.922803 0.155543
0.352479 -0.922803 0.155543
0.352479 -0.922803 0.155543
0.352479 -0.922803 0.155543
-0.352479 0.922803 -0.155543
-0.352479 0.922803 -0.155543
-0.352479 0.922803 -0.155543
-0.352479 0.922803 -0.155543
-0.352479 0.922803 -0.155543
-0.352479 0.922803 -0.155543
0.352479 -0.922803 0.155543
0.352479 -0.922803 0.155543
0.352479 -0.922803 0.155543
0.352479 -0.922803 0.155543
0.352479 -0.922803 0.155543
0.352479 -0.922803 0.155543
0.352479 -0.922803 0.155543
0.352479 -0.922803 0.155543
0.352479 -0.922803 0.155543
0.352479 -0.922803 0.155543
0.352479 -0.922803 0.155543
0.352479 -0.922803 0.155543
0.352479 -0.922803 0.155543
0.352479 -0.922803 0.155543
0.352479 -0.922803 0.155543
0.352479 -0.922803 0.155543
0.352479 -0.922803 0.155543
0.352479 -0.922803 0.155543
-0.380954 0.912894 -0.146623
-0.380954 0.912894 -0.146623
-0.380954 0.912894 -0.146623
-0.380954 0.912894 -0.146623
-0.380954 0.912894 -0.146623
-0.380954 0.912894 -0.146623
0.379770 -0.910057 0.166043
0.379770 -0.910057 0.166043
0.379770 -0.910057 0.166043
0.379770 -0.910057 0.166043
0.379770 -0.910057 0.166043
0.379770 -0.910057 0.166043
0.352479 -0.922803 0.155543
0.352479 -0.922803 0.155543
0.352479 -0.922803 0.155543
0.352479 -0.922803 0.155543
0.352479 -0.922803 0.155543
0.352479 -0.922803 0.155543
0.352479 -0.922803 0.155543
0.352479 -0.922803 0.155543
0.352479 -0.922803 0.155543
0.352479 -0.922803 0.155543
0.352479 -0.922803 0.155543
0.352479 -0.922803 0.155543
0.352479 -0.922803 0.155543
0.352479 -0.922803 0.155543
0.352479 -0.922803 0.155543
0.352479 -0.922803 0.155543
0.352479 -0.922803 0.155543
0.352479 -0.922803 0.155543
-0.199098 0.605440 0.770586
-0.199098 0.605440 0.770586
-0.199098 0.605440 0.770586
-0.199098 0.605440 0.770586
-0.199098 0.605440 0.770586
-0.199098 0.605440 0.770586
-0.042993 0.701918 0.710959
-0.042993 0.701918 0.710959
-0.042993 0.701918 0.710959
-0.042993 0.701918 0.710959
-0.042993 0.701918 0.710959
-0.042993 0.701918 0.710959
-0.016915 0.715412 0.698498
-0.016915 0.715412 0.698498
-0.016915 0.715412 0.698498
-0.016915 0.715412 0.698498
-0.016915 0.715412 0.698498
-0.016915 0.715412 0.698498
0.698498 0.016915 0.715412
0.698498 0.016915 0.715412
0.698498 0.016915 0.715412
0.698498 0.016915 0.715412
0.698498 0.016915 0.715412
0.698498 0.016915 0.715412
-0.715412 0.698498 -0.016915
-0.715412 0.698498 -0.016915
-0.715412 0.698498 -0.016915
-0.715412 0.698498 -0.016915
-0.715412 0.698498 -0.016915
-0.715412 0.698498 -0.016915
0.698498 0.016915 0.715412
0.698498 0.016915 0.715412
0.698498 0.016915 0.715412
0.698498 0.016915 0.715412
0.698498 0.016915 0.715412
0.698498 0.016915 0.715412
-0.698498 -0.016915 -0.715412
-0.698498 -0.016915 -0.715412
-0.698498 -0.016915 -0.715412
-0.698498 -0.016915 -0.715412
-0.698498 -0.016915 -0.715412
-0.698498 -0.016915 -0.715412
0.698498 0.016915 0.715412
0.698498 0.016915 0.715412
0.698498 0.016915 0.715412
0.698498 0.016915 0.715412
0.698498 0.016915 0.715412
0.698498 0.016915 0.715412
0.698498 0.016915 0.715412
0.698498 0.016915 0.715412
0.698498 0.016915 0.715412
0.698498 0.016915 0.715412
0.698498 0.016915 0.715412
0.698498 0.016915 0.715412
0.698498 0.016915 0.715412
0.698498 0.016915 0.715412
0.698498 0.016915 0.715412
0.698498 0.016915 0.715412
0.698498 0.016915 0.715412
0.698498 0.016915 0.715412
-0.719337 -0.026997 -0.694137
-0.719337 -0.026997 -0.694137
-0.719337 -0.026997 -0.694137
-0.719337 -0.026997 -0.694137
-0.719337 -0.026997 -0.694137
-0.719337 -0.026997 -0.694137
0.710959 0.042993 0.701918
0.710959 0.042993 0.701918
0.710959 0.042993 0.701918
0.710959 0.042993 0.701918
0.710959 0.042993 0.701918
0.710959 0.042993 0.701918
0.698498 0.016915 0.715412
0.698498 0.016915 0.715412
0.698498 0.016915 0.715412
0.698498 0.016915 0.715412
0.698498 0.016915 0.715412
0.698498 0.016915 0.715412
0.698498 0.016915 0.715412
0.698498 0.016915 0.715412
0.698498 0.016915 0.715412
0.698498 0.016915 0.715412
0.698498 0.016915 0.715412
0.698498 0.016915 0.715412
0.698498 0.016915 0.715412
0.698498 0.016915 0.715412
0.698498 0.016915 0.715412
0.698498 0.016915 0.715412
0.698498 0.016915 0.715412
0.698498 0.016915 0.715412
-0.701918 0.710959 -0.042993
-0.701918 0.710959 -0.042993
-0.701918 0.710959 -0.042993
-0.701918 0.710959 -0.042993
-0.701918 0.710959 -0.042993
-0.701918 0.710959 -0.042993
-0.165340 0.102186 0.980928
-0.165340 0.102186 0.980928
-0.165340 0.102186 0.980928
-0.165340 0.102186 0.980928
-0.165340 0.102186 0.980928
-0.165340 0.102186 0.980928
-0.162810 0.201244 0.965916
-0.162810 0.201244 0.965916
-0.162810 0.201244 0.965916
-0.162810 0.201244 0.965916
-0.162810 0.201244 0.965916
-0.162810 0.201244 0.965916
-0.155543 0.352479 0.922803
-0.155543 0.352479 0.922803
-0.155543 0.352479 0.922803
-0.155543 0.352479 0.922803
-0.155543 0.352479 0.922803
-0.155543 0.352479 0.922803
-0.158839 0.294503 0.942358
-0.158839 0.294503 0.942358
-0.158839 0.294503 0.942358
-0.158839 0.294503 0.942358
-0.158839 0.294503 0.942358
-0.158839 0.294503 0.942358
-0.155543 0.352479 0.922803
-0.155543 0.352479 0.922803
-0.155543 0.352479 0.922803
-0.155543 0.352479 0.922803
-0.155543 0.352479 0.922803
-0.155543 0.352479 0.922803
-0.777714 -0.224305 -0.587238
-0.777714 -0.224305 -0.587238
-0.777714 -0.224305 -0.587238
-0.777714 -0.224305 -0.587238
-0.777714 -0.224305 -0.587238
-0.777714 -0.224305 -0.587238
-0.155543 0.352479 0.922803
-0.155543 0.352479 0.922803
-0.155543 0.352479 0.922803
-0.155543 0.352479 0.922803
-0.155543 0.352479 0.922803
-0.155543 0.352479 0.922803
-0.155543 0.352479 0.922803
-0.155543 0.352479 0.922803
-0.155543 0.352479 0.922803
-0.155543 0.352479 0.922803
-0.155543 0.352479 0.922803
-0.155543 0.352479 0.922803
-0.155543 0.352479 0.922803
-0.155543 0.352479 0.922803
-0.155543 0.352479 0.922803
-0.155543 0.352479 0.922803
-0.155543 0.352479 0.922803
-0.155543 0.352479 0.922803
-0.777714 -0.224305 -0.587238
-0.777714 -0.224305 -0.587238
-0.777714 -0.224305 -0.587238
-0.777714 -0.224305 -0.587238
-0.777714 -0.224305 -0.587238
-0.777714 -0.224305 -0.587238
-0.166043 0.379770 0.910057
-0.166043 0.379770 0.910057
-0.166043 0.379770 0.910057
-0.166043 0.379770 0.910057
-0.166043 0.379770 0.910057
-0.166043 0.379770 0.910057
-0.155543 0.352479 0.922803
-0.155543 0.352479 0.922803
-0.155543 0.352479 0.922803
-0.155543 0.352479 0.922803
-0.155543 0.352479 0.922803
-0.155543 0.352479 0.922803
-0.155543 0.352479 0.922803
-0.155543 0.352479 0.922803
-0.155543 0.352479 0.922803
-0.155543 0.352479 0.922803
-0.155543 0.352479 0.922803
-0.155543 0.352479 0.922803
-0.155543 0.352479 0.922803
-0.155543 0.352479 0.922803
-0.155543 0.352479 0.922803
-0.155543 0.352479 0.922803
-0.155543 0.352479 0.922803
-0.155543 0.352479 0.922803
-0.770586 -0.199098 -0.605440
-0.770586 -0.199098 -0.605440
-0.770586 -0.199098 -0.605440
-0.770586 -0.199098 -0.605440
-0.770586 -0.199098 -0.605440
-0.770586 -0.199098 -0.605440
0.742495 -0.458887 0.487979
0.742495 -0.458887 0.487979
0.742495 -0.458887 0.487979
0.742495 -0.458887 0.487979
0.742495 -0.458887 0.487979
0.742495 -0.458887 0.487979
0.762225 -0.370459 0.530822
0.762225 -0.370459 0.530822
0.762225 -0.370459 0.530822
0.762225 -0.370459 0.530822
0.762225 -0.370459 0.530822
0.762225 -0.370459 0.530822
0.777714 -0.224305 0.587238
0.777714 -0.224305 0.587238
0.777714 -0.224305 0.587238
0.777714 -0.224305 0.587238
0.777714 -0.224305 0.587238
0.777714 -0.224305 0.587238
0.773971 -0.282004 0.566960
0.773971 -0.282004 0.566960
0.773971 -0.282004 0.566960
0.773971 -0.282004 0.566960
0.773971 -0.282004 0.566960
0.773971 -0.282004 0.566960
0.777714 -0.224305 0.587238
0.777714 -0.224305 0.587238
0.777714 -0.224305 0.587238
0.777714 -0.224305 0.587238
0.777714 -0.224305 0.587238
0.777714 -0.224305 0.587238
0.777714 -0.224305 0.587238
0.777714 -0.224305 0.587238
0.777714 -0.224305 0.587238
0.777714 -0.224305 0.587238
0.777714 -0.224305 0.587238
0.777714 -0.224305 0.587238
0.777714 -0.224305 0.587238
0.777714 -0.224305 0.587238
0.777714 -0.224305 0.587238
0.777714 -0.224305 0.587238
0.777714 -0.224305 0.587238
0.777714 -0.224305 0.587238
0.777714 -0.224305 0.587238
0.777714 -0.224305 0.587238
0.777714 -0.224305 0.587238
0.777714 -0.224305 0.587238
0.777714 -0.224305 0.587238
0.777714 -0.224305 0.587238
0.777714 -0.224305 0.587238
0.777714 -0.224305 0.587238
0.777714 -0.224305 0.587238
0.777714 -0.224305 0.587238
0.777714 -0.224305 0.587238
0.777714 -0.224305 0.587238
0.782957 -0.193558 0.591197
0.782957 -0.193558 0.591197
0.782957 -0.193558 0.591197
0.782957 -0.193558 0.591197
0.782957 -0.193558 0.591197
0.782957 -0.193558 0.591197
0.770586 -0.199098 0.605440
0.770586 -0.199098 0.605440
0.770586 -0.199098 0.605440