# vtk DataFile Version 3.0
vtk output
ASCII
DATASET POLYDATA
POINTS 272 float
1.618034 0.000000 1.000000 
1.549364 0.179782 0.666667 
1.618034 -0.000000 0.333333 
1.549364 0.179782 0.000000 
1.480693 0.359563 0.333333 
1.618034 -0.000000 -0.333333 
1.549364 0.179782 -0.666667 
1.480693 0.359563 -0.333333 
1.618034 -0.000000 -1.000000 
1.412023 0.539345 0.666667 
1.343352 0.719126 0.333333 
1.412023 0.539345 0.000000 
1.343352 0.719126 -0.333333 
1.274682 0.898908 0.000000 
1.412023 0.539345 -0.666667 
1.206011 1.078689 0.333333 
1.137341 1.258471 0.000000 
1.206011 1.078689 -0.333333 
1.000000 1.618034 -0.000000 
0.957559 1.369582 -0.290893 
1.163571 0.830237 -0.624226 
0.915119 1.121130 -0.581785 
1.369582 0.290893 -0.957559 
1.121130 0.581785 -0.915119 
0.666667 1.412023 -0.539345 
0.624226 1.163571 -0.830237 
0.872678 0.872678 -0.872678 
0.830237 0.624226 -1.163571 
0.581785 0.915119 -1.121130 
1.078689 0.333333 -1.206011 
0.333333 1.206011 -1.078689 
0.290893 0.957559 -1.369582 
0.539345 0.666667 -1.412023 
0.000000 1.000000 -1.618034 
-1.000000 1.618034 0.000000 
-0.666667 1.549364 -0.179782 
-0.333333 1.618034 0.000000 
-0.000000 1.549364 -0.179782 
-0.333333 1.480693 -0.359563 
0.333333 1.618034 0.000000 
0.666667 1.549364 -0.179782 
0.333333 1.480693 -0.359563 
-0.666667 1.412023 -0.539345 
-0.333333 1.343352 -0.719126 
-0.000000 1.412023 -0.539345 
0.333333 1.343352 -0.719126 
-0.000000 1.274682 -0.898908 
-0.333333 1.206011 -1.078689 
-0.000000 1.137341 -1.258471 
-0.000000 1.000000 1.618034 
0.000000 1.137341 1.258471 
0.333333 1.206011 1.078689 
0.333333 1.343352 0.719126 
0.000000 1.274682 0.898908 
0.666667 1.412023 0.539345 
0.666667 1.549364 0.179782 
0.333333 1.480693 0.359563 
-0.333333 1.206011 1.078689 
-0.333333 1.343352 0.719126 
0.000000 1.412023 0.539345 
0.000000 1.549364 0.179782 
-0.333333 1.480693 0.359563 
-0.666667 1.412023 0.539345 
-0.666667 1.549364 0.179782 
0.290893 0.957559 1.369582 
0.539345 0.666667 1.412023 
0.830237 0.624226 1.163571 
0.581785 0.915119 1.121130 
1.078689 0.333333 1.206011 
1.369582 0.290893 0.957559 
1.121130 0.581785 0.915119 
0.624226 1.163571 0.830237 
0.872678 0.872678 0.872678 
1.163571 0.830237 0.624226 
0.915119 1.121130 0.581785 
0.957559 1.369582 0.290893 
-0.957559 1.369582 -0.290893 
-0.624226 1.163571 -0.830237 
-0.915119 1.121130 -0.581785 
-0.290893 0.957559 -1.369582 
-0.581785 0.915119 -1.121130 
-1.206011 1.078689 -0.333333 
-1.163571 0.830237 -0.624226 
-0.872678 0.872678 -0.872678 
-0.830237 0.624226 -1.163571 
-1.121130 0.581785 -0.915119 
-0.539345 0.666667 -1.412023 
-1.412023 0.539345 -0.666667 
-1.369582 0.290893 -0.957559 
-1.078689 0.333333 -1.206011 
-1.618034 0.000000 -1.000000 
-0.290893 0.957559 1.369582 
-0.624226 1.163571 0.830237 
-0.581785 0.915119 1.121130 
-0.957559 1.369582 0.290893 
-0.915119 1.121130 0.581785 
-0.539345 0.666667 1.412023 
-0.830237 0.624226 1.163571 
-0.872678 0.872678 0.872678 
-1.163571 0.830237 0.624226 
-1.121130 0.581785 0.915119 
-1.206011 1.078689 0.333333 
-1.078689 0.333333 1.206011 
-1.369582 0.290893 0.957559 
-1.412023 0.539345 0.666667 
-1.618034 0.000000 1.000000 
-1.137341 1.258471 0.000000 
-1.343352 0.719126 -0.333333 
-1.274682 0.898908 -0.000000 
-1.549364 0.179782 -0.666667 
-1.480693 0.359563 -0.333333 
-1.343352 0.719126 0.333333 
-1.412023 0.539345 -0.000000 
-1.549364 0.179782 -0.000000 
-1.480693 0.359563 0.333333 
-1.618034 0.000000 -0.333333 
-1.549364 0.179782 0.666667 
-1.618034 0.000000 0.333333 
-0.179782 0.666667 1.549364 
-0.719126 0.333333 1.343352 
-0.359563 0.333333 1.480693 
-1.258471 0.000000 1.137341 
-0.898908 0.000000 1.274682 
0.000000 0.333333 1.618034 
-0.179782 0.000000 1.549364 
-0.539345 0.000000 1.412023 
-0.719126 -0.333333 1.343352 
-0.359563 -0.333333 1.480693 
-1.078689 -0.333333 1.206011 
-0.000000 -0.333333 1.618034 
-0.179782 -0.666667 1.549364 
-0.539345 -0.666667 1.412023 
-0.000000 -1.000000 1.618034 
0.179782 0.666667 1.549364 
0.179782 0.000000 1.549364 
0.359563 0.333333 1.480693 
0.179782 -0.666667 1.549364 
0.359563 -0.333333 1.480693 
0.719126 0.333333 1.343352 
0.539345 0.000000 1.412023 
0.719126 -0.333333 1.343352 
0.898908 0.000000 1.274682 
0.539345 -0.666667 1.412023 
1.258471 0.000000 1.137341 
1.078689 -0.333333 1.206011 
-1.000000 -1.618034 -0.000000 
-0.957559 -1.369582 0.290893 
-0.666667 -1.412023 0.539345 
-0.624226 -1.163571 0.830237 
-0.915119 -1.121130 0.581785 
-0.333333 -1.206011 1.078689 
-0.290893 -0.957559 1.369582 
-0.581785 -0.915119 1.121130 
-1.206011 -1.078689 0.333333 
-1.163571 -0.830237 0.624226 
-0.872678 -0.872678 0.872678 
-0.830237 -0.624226 1.163571 
-1.121130 -0.581785 0.915119 
-1.412023 -0.539345 0.666667 
-1.369582 -0.290893 0.957559 
0.000000 -1.137341 1.258471 
-0.333333 -1.343352 0.719126 
-0.000000 -1.274682 0.898908 
-0.666667 -1.549364 0.179782 
-0.333333 -1.480693 0.359563 
0.333333 -1.206011 1.078689 
0.333333 -1.343352 0.719126 
-0.000000 -1.412023 0.539345 
-0.000000 -1.549364 0.179782 
0.333333 -1.480693 0.359563 
-0.333333 -1.618034 0.000000 
0.666667 -1.412023 0.539345 
0.666667 -1.549364 0.179782 
0.333333 -1.618034 0.000000 
1.000000 -1.618034 0.000000 
0.290893 -0.957559 1.369582 
0.624226 -1.163571 0.830237 
0.581785 -0.915119 1.121130 
0.957559 -1.369582 0.290893 
0.915119 -1.121130 0.581785 
0.830237 -0.624226 1.163571 
0.872678 -0.872678 0.872678 
1.163571 -0.830237 0.624226 
1.121130 -0.581785 0.915119 
1.206011 -1.078689 0.333333 
1.369582 -0.290893 0.957559 
1.412023 -0.539345 0.666667 
-1.549364 -0.179782 0.666667 
-1.549364 -0.179782 0.000000 
-1.480693 -0.359563 0.333333 
-1.549364 -0.179782 -0.666667 
-1.480693 -0.359563 -0.333333 
-1.343352 -0.719126 0.333333 
-1.412023 -0.539345 0.000000 
-1.343352 -0.719126 -0.333333 
-1.274682 -0.898908 0.000000 
-1.412023 -0.539345 -0.666667 
-1.137341 -1.258471 0.000000 
-1.206011 -1.078689 -0.333333 
-0.000000 -1.000000 -1.618034 
0.000000 -1.137341 -1.258471 
0.333333 -1.206011 -1.078689 
0.333333 -1.343352 -0.719126 
0.000000 -1.274682 -0.898908 
0.666667 -1.412023 -0.539345 
0.666667 -1.549364 -0.179782 
0.333333 -1.480693 -0.359563 
-0.333333 -1.206011 -1.078689 
-0.333333 -1.343352 -0.719126 
0.000000 -1.412023 -0.539345 
0.000000 -1.549364 -0.179782 
-0.333333 -1.480693 -0.359563 
-0.666667 -1.412023 -0.539345 
-0.666667 -1.549364 -0.179782 
-0.290893 -0.957559 -1.369582 
-0.624226 -1.163571 -0.830237 
-0.581785 -0.915119 -1.121130 
-0.957559 -1.369582 -0.290893 
-0.915119 -1.121130 -0.581785 
-0.539345 -0.666667 -1.412023 
-0.830237 -0.624226 -1.163571 
-0.872678 -0.872678 -0.872678 
-1.163571 -0.830237 -0.624226 
-1.121130 -0.581785 -0.915119 
-1.078689 -0.333333 -1.206011 
-1.369582 -0.290893 -0.957559 
0.290893 -0.957559 -1.369582 
0.539345 -0.666667 -1.412023 
0.830237 -0.624226 -1.163571 
0.581785 -0.915119 -1.121130 
1.078689 -0.333333 -1.206011 
1.369582 -0.290893 -0.957559 
1.121130 -0.581785 -0.915119 
0.624226 -1.163571 -0.830237 
0.872678 -0.872678 -0.872678 
1.163571 -0.830237 -0.624226 
0.915119 -1.121130 -0.581785 
1.412023 -0.539345 -0.666667 
0.957559 -1.369582 -0.290893 
1.206011 -1.078689 -0.333333 
1.549364 -0.179782 0.666667 
1.343352 -0.719126 0.333333 
1.480693 -0.359563 0.333333 
1.137341 -1.258471 0.000000 
1.274682 -0.898908 0.000000 
1.549364 -0.179782 0.000000 
1.412023 -0.539345 0.000000 
1.343352 -0.719126 -0.333333 
1.480693 -0.359563 -0.333333 
1.549364 -0.179782 -0.666667 
0.179782 -0.666667 -1.549364 
-0.000000 -0.333333 -1.618034 
0.179782 -0.000000 -1.549364 
0.359563 -0.333333 -1.480693 
-0.000000 0.333333 -1.618034 
0.179782 0.666667 -1.549364 
0.359563 0.333333 -1.480693 
0.719126 -0.333333 -1.343352 
0.539345 -0.000000 -1.412023 
0.719126 0.333333 -1.343352 
0.898908 -0.000000 -1.274682 
1.258471 -0.000000 -1.137341 
-0.179782 -0.666667 -1.549364 
-0.719126 -0.333333 -1.343352 
-0.359563 -0.333333 -1.480693 
-1.258471 -0.000000 -1.137341 
-0.898908 -0.000000 -1.274682 
-0.179782 -0.000000 -1.549364 
-0.539345 -0.000000 -1.412023 
-0.719126 0.333333 -1.343352 
-0.359563 0.333333 -1.480693 
-0.179782 0.666667 -1.549364 
POLYGONS 540 2160
3 1 2 4 
3 2 1 240 
3 2 245 3 
3 3 4 2 
3 240 242 2 
3 245 2 242 
3 3 5 7 
3 5 3 245 
3 5 249 6 
3 6 7 5 
3 245 248 5 
3 249 5 248 
3 4 9 1 
3 69 1 9 
3 9 4 10 
3 10 73 9 
3 9 70 69 
3 70 9 73 
3 7 11 3 
3 4 3 11 
3 11 10 4 
3 11 7 12 
3 10 11 13 
3 12 13 11 
3 22 14 6 
3 7 6 14 
3 14 12 7 
3 12 14 20 
3 23 20 14 
3 14 22 23 
3 13 15 10 
3 73 10 15 
3 15 13 16 
3 16 75 15 
3 15 74 73 
3 74 15 75 
3 20 17 12 
3 13 12 17 
3 17 16 13 
3 16 17 19 
3 21 19 17 
3 17 20 21 
3 21 24 19 
3 40 19 24 
3 24 21 25 
3 25 45 24 
3 24 41 40 
3 41 24 45 
3 23 26 20 
3 21 20 26 
3 26 25 21 
3 26 23 27 
3 25 26 28 
3 27 28 26 
3 261 29 22 
3 23 22 29 
3 29 27 23 
3 27 29 259 
3 260 259 29 
3 29 261 260 
3 28 30 25 
3 45 25 30 
3 30 28 31 
3 31 48 30 
3 30 46 45 
3 46 30 48 
3 259 32 27 
3 28 27 32 
3 32 31 28 
3 31 32 255 
3 256 255 32 
3 32 259 256 
3 35 36 38 
3 36 35 63 
3 36 60 37 
3 37 38 36 
3 60 36 61 
3 63 61 36 
3 37 39 41 
3 39 37 60 
3 39 55 40 
3 40 41 39 
3 55 39 56 
3 60 56 39 
3 38 42 35 
3 76 35 42 
3 42 38 43 
3 43 77 42 
3 42 78 76 
3 78 42 77 
3 41 44 37 
3 38 37 44 
3 44 43 38 
3 44 41 45 
3 43 44 46 
3 45 46 44 
3 46 47 43 
3 77 43 47 
3 47 46 48 
3 48 79 47 
3 47 80 77 
3 80 47 79 
3 50 51 53 
3 51 50 64 
3 51 71 52 
3 52 53 51 
3 64 67 51 
3 71 51 67 
3 52 54 56 
3 54 52 71 
3 54 75 55 
3 55 56 54 
3 71 74 54 
3 75 54 74 
3 53 57 50 
3 91 50 57 
3 57 53 58 
3 58 92 57 
3 57 93 91 
3 93 57 92 
3 56 59 52 
3 53 52 59 
3 59 58 53 
3 59 56 60 
3 58 59 61 
3 60 61 59 
3 61 62 58 
3 92 58 62 
3 62 61 63 
3 63 94 62 
3 62 95 92 
3 95 62 94 
3 64 65 67 
3 65 64 133 
3 65 138 66 
3 66 67 65 
3 133 135 65 
3 138 65 135 
3 66 68 70 
3 68 66 138 
3 68 143 69 
3 69 70 68 
3 138 141 68 
3 143 68 141 
3 70 72 66 
3 67 66 72 
3 72 71 67 
3 72 70 73 
3 71 72 74 
3 73 74 72 
3 78 81 76 
3 106 76 81 
3 81 78 82 
3 82 107 81 
3 81 108 106 
3 108 81 107 
3 80 83 77 
3 78 77 83 
3 83 82 78 
3 83 80 84 
3 82 83 85 
3 84 85 83 
3 271 86 79 
3 80 79 86 
3 86 84 80 
3 84 86 269 
3 270 269 86 
3 86 271 270 
3 85 87 82 
3 107 82 87 
3 87 85 88 
3 88 109 87 
3 87 110 107 
3 110 87 109 
3 269 89 84 
3 85 84 89 
3 89 88 85 
3 88 89 265 
3 266 265 89 
3 89 269 266 
3 93 96 91 
3 118 91 96 
3 96 93 97 
3 97 119 96 
3 96 120 118 
3 120 96 119 
3 95 98 92 
3 93 92 98 
3 98 97 93 
3 98 95 99 
3 97 98 100 
3 99 100 98 
3 106 101 94 
3 95 94 101 
3 101 99 95 
3 99 101 111 
3 101 106 108 
3 108 111 101 
3 100 102 97 
3 119 97 102 
3 102 100 103 
3 103 121 102 
3 102 122 119 
3 122 102 121 
3 111 104 99 
3 100 99 104 
3 104 103 100 
3 103 104 116 
3 104 111 114 
3 114 116 104 
3 110 112 107 
3 108 107 112 
3 112 111 108 
3 112 110 113 
3 111 112 114 
3 113 114 112 
3 190 115 109 
3 110 109 115 
3 115 113 110 
3 113 115 188 
3 191 188 115 
3 115 190 191 
3 188 117 113 
3 114 113 117 
3 117 116 114 
3 116 117 187 
3 189 187 117 
3 117 188 189 
3 120 123 118 
3 133 118 123 
3 123 120 124 
3 124 134 123 
3 123 135 133 
3 135 123 134 
3 122 125 119 
3 120 119 125 
3 125 124 120 
3 125 122 126 
3 124 125 127 
3 126 127 125 
3 159 128 121 
3 122 121 128 
3 128 126 122 
3 126 128 156 
3 157 156 128 
3 128 159 157 
3 127 129 124 
3 134 124 129 
3 129 127 130 
3 130 136 129 
3 129 137 134 
3 137 129 136 
3 156 131 126 
3 127 126 131 
3 131 130 127 
3 130 131 151 
3 152 151 131 
3 131 156 152 
3 137 139 134 
3 135 134 139 
3 139 138 135 
3 139 137 140 
3 138 139 141 
3 140 141 139 
3 175 142 136 
3 137 136 142 
3 142 140 137 
3 140 142 180 
3 142 175 177 
3 177 180 142 
3 180 144 140 
3 141 140 144 
3 144 143 141 
3 143 144 185 
3 144 180 183 
3 183 185 144 
3 146 147 149 
3 147 146 163 
3 147 161 148 
3 148 149 147 
3 161 147 164 
3 163 164 147 
3 148 150 152 
3 150 148 161 
3 150 160 151 
3 151 152 150 
3 160 150 162 
3 161 162 150 
3 149 153 146 
3 197 146 153 
3 153 149 154 
3 154 192 153 
3 195 153 192 
3 153 195 197 
3 152 155 148 
3 149 148 155 
3 155 154 149 
3 155 152 156 
3 154 155 157 
3 156 157 155 
3 157 158 154 
3 192 154 158 
3 158 157 159 
3 159 187 158 
3 189 158 187 
3 158 189 192 
3 162 165 160 
3 175 160 165 
3 165 162 166 
3 166 176 165 
3 165 177 175 
3 177 165 176 
3 164 167 161 
3 162 161 167 
3 167 166 162 
3 167 164 168 
3 166 167 169 
3 168 169 167 
3 213 170 163 
3 164 163 170 
3 170 168 164 
3 168 170 210 
3 211 210 170 
3 170 213 211 
3 169 171 166 
3 176 166 171 
3 171 169 172 
3 172 178 171 
3 171 179 176 
3 179 171 178 
3 210 173 168 
3 169 168 173 
3 173 172 169 
3 172 173 205 
3 206 205 173 
3 173 210 206 
3 179 181 176 
3 177 176 181 
3 181 180 177 
3 181 179 182 
3 180 181 183 
3 182 183 181 
3 243 184 178 
3 179 178 184 
3 184 182 179 
3 182 184 241 
3 244 241 184 
3 184 243 244 
3 241 186 182 
3 183 182 186 
3 186 185 183 
3 185 186 240 
3 242 240 186 
3 186 241 242 
3 191 193 188 
3 189 188 193 
3 193 192 189 
3 193 191 194 
3 192 193 195 
3 194 195 193 
3 225 196 190 
3 191 190 196 
3 196 194 191 
3 194 196 222 
3 223 222 196 
3 196 225 223 
3 222 198 194 
3 195 194 198 
3 198 197 195 
3 197 198 217 
3 218 217 198 
3 198 222 218 
3 200 201 203 
3 201 200 226 
3 201 233 202 
3 202 203 201 
3 226 229 201 
3 233 201 229 
3 202 204 206 
3 204 202 233 
3 204 238 205 
3 205 206 204 
3 233 236 204 
3 238 204 236 
3 203 207 200 
3 214 200 207 
3 207 203 208 
3 208 215 207 
3 207 216 214 
3 216 207 215 
3 206 209 202 
3 203 202 209 
3 209 208 203 
3 209 206 210 
3 208 209 211 
3 210 211 209 
3 211 212 208 
3 215 208 212 
3 212 211 213 
3 213 217 212 
3 212 218 215 
3 218 212 217 
3 216 219 214 
3 262 214 219 
3 219 216 220 
3 220 263 219 
3 219 264 262 
3 264 219 263 
3 218 221 215 
3 216 215 221 
3 221 220 216 
3 221 218 222 
3 220 221 223 
3 222 223 221 
3 223 224 220 
3 263 220 224 
3 224 223 225 
3 225 265 224 
3 224 266 263 
3 266 224 265 
3 226 227 229 
3 227 226 250 
3 227 257 228 
3 228 229 227 
3 250 253 227 
3 257 227 253 
3 228 230 232 
3 230 228 257 
3 230 261 231 
3 231 232 230 
3 257 260 230 
3 261 230 260 
3 232 234 228 
3 229 228 234 
3 234 233 229 
3 234 232 235 
3 233 234 236 
3 235 236 234 
3 249 237 231 
3 232 231 237 
3 237 235 232 
3 235 237 247 
3 248 247 237 
3 237 249 248 
3 247 239 235 
3 236 235 239 
3 239 238 236 
3 238 239 243 
3 244 243 239 
3 239 247 244 
3 244 246 241 
3 242 241 246 
3 246 245 242 
3 246 244 247 
3 245 246 248 
3 247 248 246 
3 250 251 253 
3 251 250 262 
3 251 267 252 
3 252 253 251 
3 262 264 251 
3 267 251 264 
3 252 254 256 
3 254 252 267 
3 254 271 255 
3 255 256 254 
3 267 270 254 
3 271 254 270 
3 256 258 252 
3 253 252 258 
3 258 257 253 
3 258 256 259 
3 257 258 260 
3 259 260 258 
3 266 268 263 
3 264 263 268 
3 268 267 264 
3 268 266 269 
3 267 268 270 
3 269 270 268 
3 240 1 0 
3 0 1 69 
3 143 0 69 
3 185 0 143 
3 240 0 185 
3 6 8 22 
3 249 8 6 
3 261 22 8 
3 231 8 249 
3 261 8 231 
3 19 18 16 
3 16 18 75 
3 18 19 40 
3 18 40 55 
3 18 55 75 
3 255 33 31 
3 31 33 48 
3 79 48 33 
3 271 79 33 
3 271 33 255 
3 63 35 34 
3 34 35 76 
3 94 63 34 
3 34 76 106 
3 106 94 34 
3 64 50 49 
3 49 50 91 
3 133 64 49 
3 49 91 118 
3 49 118 133 
3 265 90 88 
3 88 90 109 
3 109 90 190 
3 190 90 225 
3 225 90 265 
3 116 105 103 
3 103 105 121 
3 105 116 187 
3 159 121 105 
3 187 159 105 
3 151 132 130 
3 130 132 136 
3 175 136 132 
3 132 151 160 
3 132 160 175 
3 163 146 145 
3 145 146 197 
3 213 163 145 
3 145 197 217 
3 217 213 145 
3 205 174 172 
3 172 174 178 
3 243 178 174 
3 174 205 238 
3 174 238 243 
3 226 200 199 
3 199 200 214 
3 199 214 262 
3 250 226 199 
3 262 250 199 

CELL_DATA 540
SCALARS eletype float
LOOKUP_TABLE default

6 6 6 6 6 6
6 6 6 6 6 6
6 6 6 6 6 6
6 6 6 6 6 6
6 6 6 6 6 6
6 6 6 6 6 6
6 6 6 6 6 6
6 6 6 6 6 6
6 6 6 6 6 6
6 6 6 6 6 6
6 6 6 6 6 6
6 6 6 6 6 6
6 6 6 6 6 6
6 6 6 6 6 6
6 6 6 6 6 6
6 6 6 6 6 6
6 6 6 6 6 6
6 6 6 6 6 6
6 6 6 6 6 6
6 6 6 6 6 6
6 6 6 6 6 6
6 6 6 6 6 6
6 6 6 6 6 6
6 6 6 6 6 6
6 6 6 6 6 6
6 6 6 6 6 6
6 6 6 6 6 6
6 6 6 6 6 6
6 6 6 6 6 6
6 6 6 6 6 6
6 6 6 6 6 6
6 6 6 6 6 6
6 6 6 6 6 6
6 6 6 6 6 6
6 6 6 6 6 6
6 6 6 6 6 6
6 6 6 6 6 6
6 6 6 6 6 6
6 6 6 6 6 6
6 6 6 6 6 6
6 6 6 6 6 6
6 6 6 6 6 6
6 6 6 6 6 6
6 6 6 6 6 6
6 6 6 6 6 6
6 6 6 6 6 6
6 6 6 6 6 6
6 6 6 6 6 6
6 6 6 6 6 6
6 6 6 6 6 6
6 6 6 6 6 6
6 6 6 6 6 6
6 6 6 6 6 6
6 6 6 6 6 6
6 6 6 6 6 6
6 6 6 6 6 6
6 6 6 6 6 6
6 6 6 6 6 6
6 6 6 6 6 6
6 6 6 6 6 6
6 6 6 6 6 6
6 6 6 6 6 6
6 6 6 6 6 6
6 6 6 6 6 6
6 6 6 6 6 6
6 6 6 6 6 6
6 6 6 6 6 6
6 6 6 6 6 6
6 6 6 6 6 6
6 6 6 6 6 6
6 6 6 6 6 6
6 6 6 6 6 6
6 6 6 6 6 6
6 6 6 6 6 6
6 6 6 6 6 6
6 6 6 6 6 6
6 6 6 6 6 6
6 6 6 6 6 6
6 6 6 6 6 6
6 6 6 6 6 6
5 5 5 5 5
5 5 5 5 5
5 5 5 5 5
5 5 5 5 5
5 5 5 5 5
5 5 5 5 5
5 5 5 5 5
5 5 5 5 5
5 5 5 5 5
5 5 5 5 5
5 5 5 5 5
5 5 5 5 5
SCALARS capsomer float 1
LOOKUP_TABLE default

0 0 0 0 0 0
1 1 1 1 1 1
2 2 2 2 2 2
3 3 3 3 3 3
4 4 4 4 4 4
5 5 5 5 5 5
6 6 6 6 6 6
7 7 7 7 7 7
8 8 8 8 8 8
9 9 9 9 9 9
10 10 10 10 10 10
11 11 11 11 11 11
12 12 12 12 12 12
13 13 13 13 13 13
14 14 14 14 14 14
15 15 15 15 15 15
16 16 16 16 16 16
17 17 17 17 17 17
18 18 18 18 18 18
19 19 19 19 19 19
20 20 20 20 20 20
21 21 21 21 21 21
22 22 22 22 22 22
23 23 23 23 23 23
24 24 24 24 24 24
25 25 25 25 25 25
26 26 26 26 26 26
27 27 27 27 27 27
28 28 28 28 28 28
29 29 29 29 29 29
30 30 30 30 30 30
31 31 31 31 31 31
32 32 32 32 32 32
33 33 33 33 33 33
34 34 34 34 34 34
35 35 35 35 35 35
36 36 36 36 36 36
37 37 37 37 37 37
38 38 38 38 38 38
39 39 39 39 39 39
40 40 40 40 40 40
41 41 41 41 41 41
42 42 42 42 42 42
43 43 43 43 43 43
44 44 44 44 44 44
45 45 45 45 45 45
46 46 46 46 46 46
47 47 47 47 47 47
48 48 48 48 48 48
49 49 49 49 49 49
50 50 50 50 50 50
51 51 51 51 51 51
52 52 52 52 52 52
53 53 53 53 53 53
54 54 54 54 54 54
55 55 55 55 55 55
56 56 56 56 56 56
57 57 57 57 57 57
58 58 58 58 58 58
59 59 59 59 59 59
60 60 60 60 60 60
61 61 61 61 61 61
62 62 62 62 62 62
63 63 63 63 63 63
64 64 64 64 64 64
65 65 65 65 65 65
66 66 66 66 66 66
67 67 67 67 67 67
68 68 68 68 68 68
69 69 69 69 69 69
70 70 70 70 70 70
71 71 71 71 71 71
72 72 72 72 72 72
73 73 73 73 73 73
74 74 74 74 74 74
75 75 75 75 75 75
76 76 76 76 76 76
77 77 77 77 77 77
78 78 78 78 78 78
79 79 79 79 79 79
80 80 80 80 80
81 81 81 81 81
82 82 82 82 82
83 83 83 83 83
84 84 84 84 84
85 85 85 85 85
86 86 86 86 86
87 87 87 87 87
88 88 88 88 88
89 89 89 89 89
90 90 90 90 90
91 91 91 91 91
VECTORS shear_direction float
0.000000 0.474702 -0.880146
0.000000 0.474702 -0.880146
0.000000 0.474702 -0.880146
0.000000 0.474702 -0.880146
0.000000 0.474702 -0.880146
0.000000 0.474702 -0.880146
0.000000 0.474702 -0.880146
0.000000 0.474702 -0.880146
0.000000 0.474702 -0.880146
0.000000 0.474702 -0.880146
0.000000 0.474702 -0.880146
0.000000 0.474702 -0.880146
0.034629 -0.565362 0.824115
0.034629 -0.565362 0.824115
0.034629 -0.565362 0.824115
0.034629 -0.565362 0.824115
0.034629 -0.565362 0.824115
0.034629 -0.565362 0.824115
0.178411 -0.467086 0.866025
0.178411 -0.467086 0.866025
0.178411 -0.467086 0.866025
0.178411 -0.467086 0.866025
0.178411 -0.467086 0.866025
0.178411 -0.467086 0.866025
-0.500000 0.309017 -0.809017
-0.500000 0.309017 -0.809017
-0.500000 0.309017 -0.809017
-0.500000 0.309017 -0.809017
-0.500000 0.309017 -0.809017
-0.500000 0.309017 -0.809017
0.034629 -0.565362 0.824115
0.034629 -0.565362 0.824115
0.034629 -0.565362 0.824115
0.034629 -0.565362 0.824115
0.034629 -0.565362 0.824115
0.034629 -0.565362 0.824115
-0.500000 0.309017 -0.809017
-0.500000 0.309017 -0.809017
-0.500000 0.309017 -0.809017
-0.500000 0.309017 -0.809017
-0.500000 0.309017 -0.809017
-0.500000 0.309017 -0.809017
0.056031 0.509331 0.858744
0.056031 0.509331 0.858744
0.056031 0.509331 0.858744
0.056031 0.509331 0.858744
0.056031 0.509331 0.858744
0.056031 0.509331 0.858744
0.110264 0.645497 0.755761
0.110264 0.645497 0.755761
0.110264 0.645497 0.755761
0.110264 0.645497 0.755761
0.110264 0.645497 0.755761
0.110264 0.645497 0.755761
-0.309017 -0.809017 -0.500000
-0.309017 -0.809017 -0.500000
-0.309017 -0.809017 -0.500000
-0.309017 -0.809017 -0.500000
-0.309017 -0.809017 -0.500000
-0.309017 -0.809017 -0.500000
0.056031 0.509331 0.858744
0.056031 0.509331 0.858744
0.056031 0.509331 0.858744
0.056031 0.509331 0.858744
0.056031 0.509331 0.858744
0.056031 0.509331 0.858744
-0.309017 -0.809017 -0.500000
-0.309017 -0.809017 -0.500000
-0.309017 -0.809017 -0.500000
-0.309017 -0.809017 -0.500000
-0.309017 -0.809017 -0.500000
-0.309017 -0.809017 -0.500000
0.880146 0.000000 -0.474702
0.880146 0.000000 -0.474702
0.880146 0.000000 -0.474702
0.880146 0.000000 -0.474702
0.880146 0.000000 -0.474702
0.880146 0.000000 -0.474702
0.880146 0.000000 -0.474702
0.880146 0.000000 -0.474702
0.880146 0.000000 -0.474702
0.880146 0.000000 -0.474702
0.880146 0.000000 -0.474702
0.880146 0.000000 -0.474702
-0.824115 0.034629 0.565362
-0.824115 0.034629 0.565362
-0.824115 0.034629 0.565362
-0.824115 0.034629 0.565362
-0.824115 0.034629 0.565362
-0.824115 0.034629 0.565362
-0.866025 0.178411 0.467086
-0.866025 0.178411 0.467086
-0.866025 0.178411 0.467086
-0.866025 0.178411 0.467086
-0.866025 0.178411 0.467086
-0.866025 0.178411 0.467086
-0.824115 0.034629 0.565362
-0.824115 0.034629 0.565362
-0.824115 0.034629 0.565362
-0.824115 0.034629 0.565362
-0.824115 0.034629 0.565362
-0.824115 0.034629 0.565362
0.056031 0.509331 -0.858744
0.056031 0.509331 -0.858744
0.056031 0.509331 -0.858744
0.056031 0.509331 -0.858744
0.056031 0.509331 -0.858744
0.056031 0.509331 -0.858744
0.056031 0.509331 -0.858744
0.056031 0.509331 -0.858744
0.056031 0.509331 -0.858744
0.056031 0.509331 -0.858744
0.056031 0.509331 -0.858744
0.056031 0.509331 -0.858744
0.056031 -0.509331 0.858744
0.056031 -0.509331 0.858744
0.056031 -0.509331 0.858744
0.056031 -0.509331 0.858744
0.056031 -0.509331 0.858744
0.056031 -0.509331 0.858744
-0.000000 -0.356822 0.934172
-0.000000 -0.356822 0.934172
-0.000000 -0.356822 0.934172
-0.000000 -0.356822 0.934172
-0.000000 -0.356822 0.934172
-0.000000 -0.356822 0.934172
0.056031 -0.509331 0.858744
0.056031 -0.509331 0.858744
0.056031 -0.509331 0.858744
0.056031 -0.509331 0.858744
0.056031 -0.509331 0.858744
0.056031 -0.509331 0.858744
0.858744 -0.056031 -0.509331
0.858744 -0.056031 -0.509331
0.858744 -0.056031 -0.509331
0.858744 -0.056031 -0.509331
0.858744 -0.056031 -0.509331
0.858744 -0.056031 -0.509331
0.858744 -0.056031 -0.509331
0.858744 -0.056031 -0.509331
0.858744 -0.056031 -0.509331
0.858744 -0.056031 -0.509331
0.858744 -0.056031 -0.509331
0.858744 -0.056031 -0.509331
-0.755761 0.110264 0.645497
-0.755761 0.110264 0.645497
-0.755761 0.110264 0.645497
-0.755761 0.110264 0.645497
-0.755761 0.110264 0.645497
-0.755761 0.110264 0.645497
0.034629 0.565362 0.824115
0.034629 0.565362 0.824115
0.034629 0.565362 0.824115
0.034629 0.565362 0.824115
0.034629 0.565362 0.824115
0.034629 0.565362 0.824115
-0.110264 0.645497 0.755761
-0.110264 0.645497 0.755761
-0.110264 0.645497 0.755761
-0.110264 0.645497 0.755761
-0.110264 0.645497 0.755761
-0.110264 0.645497 0.755761
0.309017 -0.809017 -0.500000
0.309017 -0.809017 -0.500000
0.309017 -0.809017 -0.500000
0.309017 -0.809017 -0.500000
0.309017 -0.809017 -0.500000
0.309017 -0.809017 -0.500000
0.034629 0.565362 0.824115
0.034629 0.565362 0.824115
0.034629 0.565362 0.824115
0.034629 0.565362 0.824115
0.034629 0.565362 0.824115
0.034629 0.565362 0.824115
0.309017 -0.809017 -0.500000
0.309017 -0.809017 -0.500000
0.309017 -0.809017 -0.500000
0.309017 -0.809017 -0.500000
0.309017 -0.809017 -0.500000
0.309017 -0.809017 -0.500000
0.858744 0.056031 0.509331
0.858744 0.056031 0.509331
0.858744 0.056031 0.509331
0.858744 0.056031 0.509331
0.858744 0.056031 0.509331
0.858744 0.056031 0.509331
0.755761 0.110264 0.645497
0.755761 0.110264 0.645497
0.755761 0.110264 0.645497
0.755761 0.110264 0.645497
0.755761 0.110264 0.645497
0.755761 0.110264 0.645497
-0.500000 -0.309017 -0.809017
-0.500000 -0.309017 -0.809017
-0.500000 -0.309017 -0.809017
-0.500000 -0.309017 -0.809017
-0.500000 -0.309017 -0.809017
-0.500000 -0.309017 -0.809017
0.858744 0.056031 0.509331
0.858744 0.056031 0.509331
0.858744 0.056031 0.509331
0.858744 0.056031 0.509331
0.858744 0.056031 0.509331
0.858744 0.056031 0.509331
-0.500000 -0.309017 -0.809017
-0.500000 -0.309017 -0.809017
-0.500000 -0.309017 -0.809017
-0.500000 -0.309017 -0.809017
-0.500000 -0.309017 -0.809017
-0.500000 -0.309017 -0.809017
0.356822 0.934172 0.000000
0.356822 0.934172 0.000000
0.356822 0.934172 0.000000
0.356822 0.934172 0.000000
0.356822 0.934172 0.000000
0.356822 0.934172 0.000000
0.000000 -1.000000 0.000000
0.000000 -1.000000 0.000000
0.000000 -1.000000 0.000000
0.000000 -1.000000 0.000000
0.000000 -1.000000 0.000000
0.000000 -1.000000 0.000000
0.000000 -1.000000 0.000000
0.000000 -1.000000 0.000000
0.000000 -1.000000 0.000000
0.000000 -1.000000 0.000000
0.000000 -1.000000 0.000000
0.000000 -1.000000 0.000000
0.474702 0.880146 0.000000
0.474702 0.880146 0.000000
0.474702 0.880146 0.000000
0.474702 0.880146 0.000000
0.474702 0.880146 0.000000
0.474702 0.880146 0.000000
0.467086 0.866025 0.178411
0.467086 0.866025 0.178411
0.467086 0.866025 0.178411
0.467086 0.866025 0.178411
0.467086 0.866025 0.178411
0.467086 0.866025 0.178411
-0.309017 -0.809017 -0.500000
-0.309017 -0.809017 -0.500000
-0.309017 -0.809017 -0.500000
-0.309017 -0.809017 -0.500000
-0.309017 -0.809017 -0.500000
-0.309017 -0.809017 -0.500000
0.474702 0.880146 0.000000
0.474702 0.880146 0.000000
0.474702 0.880146 0.000000
0.474702 0.880146 0.000000
0.474702 0.880146 0.000000
0.474702 0.880146 0.000000
-0.309017 -0.809017 -0.500000
-0.309017 -0.809017 -0.500000
-0.309017 -0.809017 -0.500000
-0.309017 -0.809017 -0.500000
-0.309017 -0.809017 -0.500000
-0.309017 -0.809017 -0.500000
-0.467086 0.866025 0.178411
-0.467086 0.866025 0.178411
-0.467086 0.866025 0.178411
-0.467086 0.866025 0.178411
-0.467086 0.866025 0.178411
-0.467086 0.866025 0.178411
0.309017 -0.809017 -0.500000
0.309017 -0.809017 -0.500000
0.309017 -0.809017 -0.500000
0.309017 -0.809017 -0.500000
0.309017 -0.809017 -0.500000
0.309017 -0.809017 -0.500000
0.309017 -0.809017 -0.500000
0.309017 -0.809017 -0.500000
0.309017 -0.809017 -0.500000
0.309017 -0.809017 -0.500000
0.309017 -0.809017 -0.500000
0.309017 -0.809017 -0.500000
0.056031 0.509331 0.858744
0.056031 0.509331 0.858744
0.056031 0.509331 0.858744
0.056031 0.509331 0.858744
0.056031 0.509331 0.858744
0.056031 0.509331 0.858744
0.056031 0.509331 0.858744
0.056031 0.509331 0.858744
0.056031 0.509331 0.858744
0.056031 0.509331 0.858744
0.056031 0.509331 0.858744
0.056031 0.509331 0.858744
0.034629 -0.565362 -0.824115
0.034629 -0.565362 -0.824115
0.034629 -0.565362 -0.824115
0.034629 -0.565362 -0.824115
0.034629 -0.565362 -0.824115
0.034629 -0.565362 -0.824115
-0.110264 -0.645497 -0.755761
-0.110264 -0.645497 -0.755761
-0.110264 -0.645497 -0.755761
-0.110264 -0.645497 -0.755761
-0.110264 -0.645497 -0.755761
-0.110264 -0.645497 -0.755761
0.034629 -0.565362 -0.824115
0.034629 -0.565362 -0.824115
0.034629 -0.565362 -0.824115
0.034629 -0.565362 -0.824115
0.034629 -0.565362 -0.824115
0.034629 -0.565362 -0.824115
-0.056031 0.509331 0.858744
-0.056031 0.509331 0.858744
-0.056031 0.509331 0.858744
-0.056031 0.509331 0.858744
-0.056031 0.509331 0.858744
-0.056031 0.509331 0.858744
0.000000 0.356822 0.934172
0.000000 0.356822 0.934172
0.000000 0.356822 0.934172
0.000000 0.356822 0.934172
0.000000 0.356822 0.934172
0.000000 0.356822 0.934172
0.000000 -0.000000 -1.000000
0.000000 -0.000000 -1.000000
0.000000 -0.000000 -1.000000
0.000000 -0.000000 -1.000000
0.000000 -0.000000 -1.000000
0.000000 -0.000000 -1.000000
-0.056031 0.509331 0.858744
-0.056031 0.509331 0.858744
-0.056031 0.509331 0.858744
-0.056031 0.509331 0.858744
-0.056031 0.509331 0.858744
-0.056031 0.509331 0.858744
0.000000 0.000000 -1.000000
0.000000 0.000000 -1.000000
0.000000 0.000000 -1.000000
0.000000 0.000000 -1.000000
0.000000 0.000000 -1.000000
0.000000 0.000000 -1.000000
-0.755761 -0.110264 0.645497
-0.755761 -0.110264 0.645497
-0.755761 -0.110264 0.645497
-0.755761 -0.110264 0.645497
-0.755761 -0.110264 0.645497
-0.755761 -0.110264 0.645497
0.500000 0.309017 -0.809017
0.500000 0.309017 -0.809017
0.500000 0.309017 -0.809017
0.500000 0.309017 -0.809017
0.500000 0.309017 -0.809017
0.500000 0.309017 -0.809017
0.500000 0.309017 -0.809017
0.500000 0.309017 -0.809017
0.500000 0.309017 -0.809017
0.500000 0.309017 -0.809017
0.500000 0.309017 -0.809017
0.500000 0.309017 -0.809017
-0.178411 0.467086 0.866025
-0.178411 0.467086 0.866025
-0.178411 0.467086 0.866025
-0.178411 0.467086 0.866025
-0.178411 0.467086 0.866025
-0.178411 0.467086 0.866025
0.500000 -0.309017 -0.809017
0.500000 -0.309017 -0.809017
0.500000 -0.309017 -0.809017
0.500000 -0.309017 -0.809017
0.500000 -0.309017 -0.809017
0.500000 -0.309017 -0.809017
0.500000 -0.309017 -0.809017
0.500000 -0.309017 -0.809017
0.500000 -0.309017 -0.809017
0.500000 -0.309017 -0.809017
0.500000 -0.309017 -0.809017
0.500000 -0.309017 -0.809017
0.056031 -0.509331 0.858744
0.056031 -0.509331 0.858744
0.056031 -0.509331 0.858744
0.056031 -0.509331 0.858744
0.056031 -0.509331 0.858744
0.056031 -0.509331 0.858744
0.056031 -0.509331 0.858744
0.056031 -0.509331 0.858744
0.056031 -0.509331 0.858744
0.056031 -0.509331 0.858744
0.056031 -0.509331 0.858744
0.056031 -0.509331 0.858744
0.056031 0.509331 -0.858744
0.056031 0.509331 -0.858744
0.056031 0.509331 -0.858744
0.056031 0.509331 -0.858744
0.056031 0.509331 -0.858744
0.056031 0.509331 -0.858744
-0.000000 0.356822 -0.934172
-0.000000 0.356822 -0.934172
-0.000000 0.356822 -0.934172
-0.000000 0.356822 -0.934172
-0.000000 0.356822 -0.934172
-0.000000 0.356822 -0.934172
0.056031 0.509331 -0.858744
0.056031 0.509331 -0.858744
0.056031 0.509331 -0.858744
0.056031 0.509331 -0.858744
0.056031 0.509331 -0.858744
0.056031 0.509331 -0.858744
0.858744 -0.056031 -0.509331
0.858744 -0.056031 -0.509331
0.858744 -0.056031 -0.509331
0.858744 -0.056031 -0.509331
0.858744 -0.056031 -0.509331
0.858744 -0.056031 -0.509331
0.755761 -0.110264 -0.645497
0.755761 -0.110264 -0.645497
0.755761 -0.110264 -0.645497
0.755761 -0.110264 -0.645497