# vtk DataFile Version 2.0
icosTwo dual 
ASCII
DATASET POLYDATA
POINTS  20  double
 -2.8352084876762934e-01 -7.4014868308343765e-17  7.4235547997397333e-01
 -4.5877579028561000e-01  4.5879397349039125e-01  4.5881215597455299e-01
 -7.4234424235807772e-01  2.8355026945068001e-01  2.9420460366913481e-05
 -7.4234424235807772e-01 -2.8355026945068001e-01  2.9420460366839467e-05
 -4.5877579028561000e-01 -4.5879397349039125e-01  4.5881215597455283e-01
  2.8357968968836345e-01 -7.4014868308343765e-17  7.4233300474218211e-01
  4.5881215597455305e-01  4.5879397349039119e-01  4.5877579028560983e-01
  1.1237615895572047e-05  7.4234424294107126e-01  2.8355026922799637e-01
 -1.2742468095831386e-05  7.4234424294107126e-01 -2.8355026916436304e-01
 -4.5881366082675323e-01  4.5879397349039125e-01 -4.5877579022197673e-01
 -2.8358269939276398e-01  7.4014868308343765e-17 -7.4233300461491591e-01
 -4.5881366082675329e-01 -4.5879397349039119e-01 -4.5877579022197690e-01
 -1.2742468095905402e-05 -7.4234424294107126e-01 -2.8355026916436316e-01
  1.1237615895498543e-05 -7.4234424294107126e-01  2.8355026922799625e-01
  4.5881215597455305e-01 -4.5879397349039125e-01  4.5877579028560983e-01
  7.4234331224463668e-01  2.8355026945068001e-01 -3.0925273240075178e-05
  7.4234331224463668e-01 -2.8355026945068001e-01 -3.0925273240075178e-05
  4.5877335531996843e-01  4.5879397349039125e-01 -4.5881366072379254e-01
  2.8351690894978737e-01  7.4014868308343765e-17 -7.4235698465957967e-01
  4.5877335531996843e-01 -4.5879397349039125e-01 -4.5881366072379265e-01
POLYGONS  12  72
5           0         1         2         3         4
5           0         5         6         7         1
5           1         7         8         9         2
5           2         9        10        11         3
5           3        11        12        13         4
5           0         4        13        14         5
5           5        14        16        15         6
5           6        15        17         8         7
5           8        17        18        10         9
5          10        18        19        12        11
5          12        19        16        14        13
5          15        16        19        18        17
CELL_DATA    12
SCALARS    valence    int    1
LOOKUP_TABLE default
5
5
5
5
5
5
5
5
5
5
5
5

