# vtk DataFile Version 2.0
icosTwo dual 
ASCII
DATASET POLYDATA
POINTS  32  double
 -2.8352084876762934e-01 -7.4014868308343765e-17  7.4235547997397333e-01
 -4.5877579028561000e-01  4.5879397349039125e-01  4.5881215597455299e-01
 -7.4234424235807772e-01  2.8355026945068001e-01  2.9420460366913481e-05
 -7.4234424235807772e-01 -2.8355026945068001e-01  2.9420460366839467e-05
 -4.5877579028561000e-01 -4.5879397349039125e-01  4.5881215597455283e-01
  2.8357968968836345e-01 -7.4014868308343765e-17  7.4233300474218211e-01
  4.5881215597455305e-01  4.5879397349039119e-01  4.5877579028560983e-01
  1.1237615895572047e-05  7.4234424294107126e-01  2.8355026922799637e-01
 -1.2742468095831386e-05  7.4234424294107126e-01 -2.8355026916436304e-01
 -4.5881366082675323e-01  4.5879397349039125e-01 -4.5877579022197673e-01
 -2.8358269939276398e-01  7.4014868308343765e-17 -7.4233300461491591e-01
 -4.5881366082675329e-01 -4.5879397349039119e-01 -4.5877579022197690e-01
 -1.2742468095905402e-05 -7.4234424294107126e-01 -2.8355026916436316e-01
  1.1237615895498543e-05 -7.4234424294107126e-01  2.8355026922799625e-01
  4.5881215597455305e-01 -4.5879397349039125e-01  4.5877579028560983e-01
  7.4234331224463668e-01  2.8355026945068001e-01 -3.0925273240075178e-05
  7.4234331224463668e-01 -2.8355026945068001e-01 -3.0925273240075178e-05
  4.5877335531996843e-01  4.5879397349039125e-01 -4.5881366072379254e-01
  2.8351690894978737e-01  7.4014868308343765e-17 -7.4235698465957967e-01
  4.5877335531996843e-01 -4.5879397349039125e-01 -4.5881366072379265e-01
 -5.3715218281100097e-01 -2.2204460492503132e-17  3.3200772656876254e-01
  2.1288845114542099e-05  3.3198643798437072e-01  5.3716534004086292e-01
 -3.3198703966452825e-01  5.3716534046272102e-01  1.3157255315299209e-05
 -5.3717970115248515e-01  3.3306690738754695e-17 -3.3196514882762718e-01
 -3.3198703966452825e-01 -5.3716534046272102e-01  1.3157255315177086e-05
  2.1288845114542099e-05 -3.3198643798437077e-01  5.3716534004086292e-01
  5.3717812522534858e-01 -3.3306690738754695e-17  3.3196454695338434e-01
  3.3198546373739157e-01  5.3716534046272102e-01 -1.3759129557888716e-05
 -2.3767683571451760e-05  3.3198643798437077e-01 -5.3716594187692557e-01
 -2.3767683571473962e-05 -3.3198643798437072e-01 -5.3716594187692568e-01
  3.3198546373739157e-01 -5.3716534046272102e-01 -1.3759129557966431e-05
  5.3715004881579953e-01  1.1102230246251566e-17 -3.3200923133072896e-01
POLYGONS  60  240
3           0         1        20
3           1         2        20
3           2         3        20
3           3         4        20
3           4         0        20
3           0         5        21
3           5         6        21
3           6         7        21
3           7         1        21
3           1         0        21
3           1         7        22
3           7         8        22
3           8         9        22
3           9         2        22
3           2         1        22
3           2         9        23
3           9        10        23
3          10        11        23
3          11         3        23
3           3         2        23
3           3        11        24
3          11        12        24
3          12        13        24
3          13         4        24
3           4         3        24
3           0         4        25
3           4        13        25
3          13        14        25
3          14         5        25
3           5         0        25
3           5        14        26
3          14        16        26
3          16        15        26
3          15         6        26
3           6         5        26
3           6        15        27
3          15        17        27
3          17         8        27
3           8         7        27
3           7         6        27
3           8        17        28
3          17        18        28
3          18        10        28
3          10         9        28
3           9         8        28
3          10        18        29
3          18        19        29
3          19        12        29
3          12        11        29
3          11        10        29
3          12        19        30
3          19        16        30
3          16        14        30
3          14        13        30
3          13        12        30
3          15        16        31
3          16        19        31
3          19        18        31
3          18        17        31
3          17        15        31
CELL_DATA    60
SCALARS    valence    int    1
LOOKUP_TABLE default
5
5
5
5
5
5
5
5
5
5
5
5
5
5
5
5
5
5
5
5
5
5
5
5
5
5
5
5
5
5
5
5
5
5
5
5
5
5
5
5
5
5
5
5
5
5
5
5
5
5
5
5
5
5
5
5
5
5
5
5

