# vtk DataFile Version 2.0
T16primal dual 
ASCII
DATASET POLYDATA
POINTS  320  double
  1.2060113295832982e-01 -1.8503717077085941e-17  9.0786893258332635e-01
  2.4120226591665964e-01 -3.7007434154171883e-17  8.1573786516665259e-01
  3.0150283239582454e-01 -1.3143277802978345e-01  7.6967233145831582e-01
  4.2210396535415445e-01 -1.3143277802978351e-01  6.7754126404164217e-01
  3.0150283239582459e-01  1.3143277802978337e-01  7.6967233145831582e-01
  4.2210396535415445e-01  1.3143277802978337e-01  6.7754126404164217e-01
  4.8240453183331927e-01 -2.6286555605956691e-01  6.3147573033330529e-01
  6.0300566479164919e-01 -2.6286555605956691e-01  5.3934466291663175e-01
  4.8240453183331927e-01 -7.4014868308343765e-17  6.3147573033330529e-01
  6.0300566479164919e-01 -9.2518585385429716e-17  5.3934466291663175e-01
  4.8240453183331927e-01  2.6286555605956680e-01  6.3147573033330529e-01
  6.0300566479164919e-01  2.6286555605956680e-01  5.3934466291663175e-01
  6.6330623127081401e-01 -3.9429833408935039e-01  4.9327912920829481e-01
  6.6330623127081412e-01 -1.3143277802978351e-01  4.9327912920829481e-01
  6.6330623127081412e-01  1.3143277802978334e-01  4.9327912920829481e-01
  6.6330623127081412e-01  3.9429833408935017e-01  4.9327912920829481e-01
  5.7997289793748086e-01  5.0899682746194796e-01  4.9327912920829481e-01
  4.3633899812498250e-01  4.9226254280476245e-01  5.3934466291663175e-01
  3.2997289793748080e-01  5.9022675152017468e-01  4.9327912920829481e-01
  1.8633899812498256e-01  5.7349246686298905e-01  5.3934466291663175e-01
  3.9907119849998601e-01  3.7756404943216459e-01  6.3147573033330529e-01
  2.5543729868748777e-01  3.6082976477497902e-01  6.7754126404164217e-01
  7.9972897937480816e-02  6.7145667557840127e-01  4.9327912920829481e-01
 -6.3661001875017428e-02  6.5472239092121565e-01  5.3934466291663175e-01
  1.4907119849998604e-01  4.5879397349039125e-01  6.3147573033330529e-01
  5.4372986874878003e-03  4.4205968883320562e-01  6.7754126404164217e-01
  2.1816949906249128e-01  2.4613127140238122e-01  7.6967233145831582e-01
  7.4535599249993020e-02  2.2939698674519560e-01  8.1573786516665259e-01
 -1.7002710206251917e-01  7.5268659963662776e-01  4.9327912920829481e-01
 -1.0092880150001393e-01  5.4002389754861779e-01  6.3147573033330529e-01
 -3.1830500937508714e-02  3.2736119546060788e-01  7.6967233145831582e-01
  3.7267799624996510e-02  1.1469849337259781e-01  9.0786893258332635e-01
 -3.0486326779167711e-01  7.0887567362670012e-01  4.9327912920829481e-01
 -3.3333333333333326e-01  5.6710053890136003e-01  5.3934466291663175e-01
 -4.5937176497915083e-01  4.9621297153869010e-01  4.9327912920829481e-01
 -4.8784183052080704e-01  3.5443783681335006e-01  5.3934466291663175e-01
 -2.3576496722917187e-01  4.9621297153869010e-01  6.3147573033330529e-01
 -2.6423503277082805e-01  3.5443783681335006e-01  6.7754126404164217e-01
 -6.1388026216662472e-01  2.8355026945068001e-01  4.9327912920829481e-01
 -6.4235032770828082e-01  1.4177513472534001e-01  5.3934466291663175e-01
 -3.9027346441664562e-01  2.8355026945068001e-01  6.3147573033330529e-01
 -4.1874352995830177e-01  1.4177513472534001e-01  6.7754126404164217e-01
 -1.6666666666666663e-01  2.8355026945068001e-01  7.6967233145831582e-01
 -1.9513673220832281e-01  1.4177513472534001e-01  8.1573786516665259e-01
 -7.6838875935409845e-01  7.0887567362670004e-02  4.9327912920829481e-01
 -5.4478196160411940e-01  7.0887567362670004e-02  6.3147573033330529e-01
 -3.2117516385414041e-01  7.0887567362670004e-02  7.6967233145831582e-01
 -9.7568366104161405e-02  7.0887567362670004e-02  9.0786893258332635e-01
 -7.6838875935409845e-01 -7.0887567362670004e-02  4.9327912920829481e-01
 -6.4235032770828093e-01 -1.4177513472534001e-01  5.3934466291663175e-01
 -6.1388026216662472e-01 -2.8355026945068001e-01  4.9327912920829481e-01
 -4.8784183052080715e-01 -3.5443783681335000e-01  5.3934466291663175e-01
 -5.4478196160411940e-01 -7.0887567362670004e-02  6.3147573033330529e-01
 -4.1874352995830183e-01 -1.4177513472534001e-01  6.7754126404164217e-01
 -4.5937176497915094e-01 -4.9621297153868998e-01  4.9327912920829481e-01
 -3.3333333333333343e-01 -5.6710053890136003e-01  5.3934466291663175e-01
 -3.9027346441664568e-01 -2.8355026945068001e-01  6.3147573033330529e-01
 -2.6423503277082810e-01 -3.5443783681335000e-01  6.7754126404164217e-01
 -3.2117516385414041e-01 -7.0887567362670004e-02  7.6967233145831582e-01
 -1.9513673220832284e-01 -1.4177513472534001e-01  8.1573786516665259e-01
 -3.0486326779167727e-01 -7.0887567362670001e-01  4.9327912920829481e-01
 -2.3576496722917198e-01 -4.9621297153868998e-01  6.3147573033330529e-01
 -1.6666666666666671e-01 -2.8355026945068001e-01  7.6967233145831582e-01
 -9.7568366104161419e-02 -7.0887567362670004e-02  9.0786893258332635e-01
 -1.7002710206251936e-01 -7.5268659963662776e-01  4.9327912920829481e-01
 -6.3661001875017595e-02 -6.5472239092121565e-01  5.3934466291663175e-01
  7.9972897937480650e-02 -6.7145667557840127e-01  4.9327912920829481e-01
  1.8633899812498242e-01 -5.7349246686298916e-01  5.3934466291663175e-01
 -1.0092880150001408e-01 -5.4002389754861779e-01  6.3147573033330529e-01
  5.4372986874876850e-03 -4.4205968883320562e-01  6.7754126404164217e-01
  3.2997289793748069e-01 -5.9022675152017479e-01  4.9327912920829481e-01
  4.3633899812498239e-01 -4.9226254280476250e-01  5.3934466291663175e-01
  1.4907119849998596e-01 -4.5879397349039125e-01  6.3147573033330529e-01
  2.5543729868748771e-01 -3.6082976477497902e-01  6.7754126404164217e-01
 -3.1830500937508797e-02 -3.2736119546060782e-01  7.6967233145831582e-01
  7.4535599249992979e-02 -2.2939698674519562e-01  8.1573786516665259e-01
  5.7997289793748064e-01 -5.0899682746194819e-01  4.9327912920829481e-01
  3.9907119849998596e-01 -3.7756404943216476e-01  6.3147573033330529e-01
  2.1816949906249125e-01 -2.4613127140238125e-01  7.6967233145831582e-01
  3.7267799624996482e-02 -1.1469849337259781e-01  9.0786893258332635e-01
  7.3784183052080687e-01 -3.9429833408935039e-01  3.7267799624996495e-01
  7.5207686329163514e-01 -2.6286555605956691e-01  2.9814239699997197e-01
  7.8054692883329135e-01 -2.6286555605956691e-01  1.4907119849998599e-01
  7.9478196160411940e-01 -1.3143277802978348e-01  7.4535599249992993e-02
  7.3784183052080710e-01 -1.3143277802978351e-01  3.7267799624996495e-01
  7.5207686329163526e-01 -9.2518585385429716e-17  2.9814239699997197e-01
  8.2325202714577550e-01 -1.3143277802978345e-01 -7.4535599249993006e-02
  8.3748705991660366e-01 -3.7007434154171883e-17 -1.4907119849998601e-01
  7.8054692883329135e-01 -7.4014868308343765e-17  1.4907119849998599e-01
  7.9478196160411940e-01  1.3143277802978337e-01  7.4535599249992993e-02
  7.3784183052080710e-01  1.3143277802978334e-01  3.7267799624996495e-01
  7.5207686329163526e-01  2.6286555605956680e-01  2.9814239699997197e-01
  8.6595712545825998e-01 -1.8503717077085941e-17 -2.9814239699997203e-01
  8.2325202714577550e-01  1.3143277802978337e-01 -7.4535599249993006e-02
  7.8054692883329135e-01  2.6286555605956680e-01  1.4907119849998599e-01
  7.3784183052080710e-01  3.9429833408935017e-01  3.7267799624996495e-01
  8.2868932583326327e-01  1.1469849337259780e-01 -3.7267799624996495e-01
  7.6295146066661079e-01  2.2939698674519560e-01 -2.9814239699997203e-01
  6.7418082864578965e-01  3.2736119546060777e-01 -3.7267799624996495e-01
  6.0844296347913696e-01  4.4205968883320557e-01 -2.9814239699997203e-01
  7.8598422752077912e-01  2.4613127140238120e-01 -1.4907119849998601e-01
  7.2024636235412631e-01  3.6082976477497897e-01 -7.4535599249993006e-02
  5.1967233145831593e-01  5.4002389754861779e-01 -3.7267799624996495e-01
  4.5393446629166329e-01  6.5472239092121565e-01 -2.9814239699997203e-01
  6.3147573033330540e-01  4.5879397349039119e-01 -1.4907119849998601e-01
  5.6573786516665281e-01  5.7349246686298905e-01 -7.4535599249993006e-02
  7.4327912920829486e-01  3.7756404943216459e-01  7.4535599249993006e-02
  6.7754126404164217e-01  4.9226254280476245e-01  1.4907119849998601e-01
  3.6516383427084226e-01  7.5268659963662776e-01 -3.7267799624996495e-01
  4.7696723314583167e-01  6.7145667557840116e-01 -1.4907119849998601e-01
  5.8877063202082114e-01  5.9022675152017456e-01  7.4535599249993006e-02
  7.0057403089581072e-01  5.0899682746194796e-01  2.9814239699997197e-01
  2.6759546816668078e-01  8.2357416699929786e-01 -2.9814239699997203e-01
  2.5879773408334045e-01  7.9649752564655563e-01 -1.4907119849998601e-01
  1.2939886704167028e-01  8.2357416699929786e-01 -7.4535599249993006e-02
  1.2060113295832993e-01  7.9649752564655563e-01  7.4535599249992993e-02
  3.7939886704167031e-01  7.4234424294107126e-01 -7.4535599249993006e-02
  3.7060113295832992e-01  7.1526760158832892e-01  7.4535599249992993e-02
 -8.7977340833402390e-03  8.2357416699929786e-01  1.4907119849998599e-01
 -1.7595468166680586e-02  7.9649752564655563e-01  2.9814239699997197e-01
  2.4120226591665975e-01  7.4234424294107126e-01  1.4907119849998599e-01
  2.3240453183331944e-01  7.1526760158832892e-01  2.9814239699997197e-01
  4.9120226591665972e-01  6.6111431888284466e-01  1.4907119849998599e-01
  4.8240453183331944e-01  6.3403767753010243e-01  2.9814239699997203e-01
 -1.4699433520835073e-01  8.2357416699929786e-01  3.7267799624996495e-01
  1.0300566479164924e-01  7.4234424294107126e-01  3.7267799624996495e-01
  3.5300566479164924e-01  6.6111431888284466e-01  3.7267799624996495e-01
  6.0300566479164930e-01  5.7988439482461807e-01  3.7267799624996495e-01
  1.4699433520835095e-01  8.2357416699929775e-01 -3.7267799624996495e-01
  1.7595468166680787e-02  7.9649752564655574e-01 -2.9814239699997203e-01
 -1.0300566479164906e-01  7.4234424294107126e-01 -3.7267799624996495e-01
 -2.3240453183331922e-01  7.1526760158832914e-01 -2.9814239699997203e-01
  8.7977340833404524e-03  8.2357416699929786e-01 -1.4907119849998601e-01
 -1.2060113295832973e-01  7.9649752564655574e-01 -7.4535599249993006e-02
 -3.5300566479164908e-01  6.6111431888284466e-01 -3.7267799624996495e-01
[...]
CELL_DATA    162
SCALARS    valence    int    1
LOOKUP_TABLE default
5
5
5
5
5
5
5
5
5
5
5
5
6
6
6
6
6
6
6
6
6
6
6
6
6
6
6
6
6
6
6
6
6
6
6
6
6
6
6
6
6
6
6
6
6
6
6
6
6
6
6
6
6
6
6
6
6
6
6
6
6
6
6
6
6
6
6
6
6
6
6
6
6
6
6
6
6
6
6
6
6
6
6
6
6
6
6
6
6
6
6
6
6
6
6
6
6
6
6
6
6
6
6
6
6
6
6
6
6
6
6
6
6
6
6
6
6
6
6
6
6
6
6
6
6
6
6
6
6
6
6
6
6
6
6
6
6
6
6
6
6
6
6
6
6
6
6
6
6
6
6
6
6
6
6
6
6
6
6
6
6
6

