# vtk DataFile Version 3.0 
vtk output
ASCII
DATASET UNSTRUCTURED_GRID
POINTS 212 float
0.06495650074312691	0.6939207673324276	0.44199226694078814
-0.12357807900698276	0.6065459999045072	0.4769328992836227
-0.14506083384698754	0.44645134021978733	0.6144875530486426
0.029034012126662102	0.3558602563484622	0.6950935808376685
-0.49717003388252395	0.41013073253357235	0.515477722118231
-0.3288720367923878	0.3407345153954094	0.6215929178043927
0.015937697572541733	0.17711378618197438	0.8059027477927148
0.236423516145289	0.5995741666989749	0.5154777221182318
0.2224307328499254	0.41806864944595307	0.6215929178043931
0.3797741934478139	0.2759221025787726	0.6144875530486417
0.5386717990965728	0.304962759151464	0.4769328992836251
0.17337023987519862	0.03957351873720619	0.8059027477927146
0.347415218852697	0.08235388040704816	0.6950935808376674
0.6800305301888068	0.15265600654795417	0.4419922669407669
-0.4732855219807592	0.562786739081519	0.37466577553449754
-0.2833004253374605	0.645697274546875	0.3368241094052621
-0.23471335960082917	0.7223734427985599	0.14506083384698804
-0.36849715836648084	0.6888998803115546	-0.016167288358023852
0.1115492671340965	0.7766879528809508	0.2557638113786248
-0.03330406342254306	0.7739289057944169	0.10275928262546774
-0.3118121957957896	0.7334942860696376	-0.21415375134626405
0.3889887260043066	0.6240319463329975	0.3746657755345053
0.5265499545689004	0.4689661466429526	0.33682410940526014
0.6144875530486414	0.44645134021978866	0.14506083384698573
0.5413108359311353	0.5633433941398276	-0.01616728835802044
0.7731447579698848	0.13392011937065906	0.25576381137860155
0.7257586074256498	0.2708312308656025	0.10275928262547289
0.6012392528775246	0.5232132203443199	-0.21415375134626133
0.47328552198075985	0.5627867390815254	-0.3746657755344828
0.28330042533746025	0.6456972745468742	-0.3368241094052646
0.2347133596008266	0.7223734427985611	-0.14506083384698662
0.36849715836648284	0.688899880311553	0.016167288358024473
-0.11154926713410238	0.776687952880952	-0.2557638113786222
0.033304063422543245	0.7739289057944165	-0.1027592826254687
0.311812195795778	0.7334942860696438	0.21415375134626188
-0.01593769757255309	0.17711378618197335	-0.8059027477927151
-0.029034012126661426	0.3558602563484615	-0.6950935808376686
0.1450608338469853	0.4464513402197886	-0.6144875530486423
0.3288720367923891	0.3407345153954087	-0.6215929178043925
-0.06495650074313125	0.6939207673324268	-0.441992266940791
0.12357807900698228	0.6065459999045084	-0.476932899283621
0.49717003388251857	0.410130732533582	-0.5154777221182287
-0.1733702398752006	0.03957351873720177	-0.8059027477927138
-0.34741521885269616	0.08235388040704955	-0.6950935808376678
-0.37977419344781443	0.2759221025787708	-0.6144875530486419
-0.222430732849925	0.41806864944595395	-0.6215929178043927
-0.6800305301887949	0.15265600654794728	-0.4419922669407824
-0.5386717990965735	0.30496275915146664	-0.4769328992836228
-0.2364235161453012	0.5995741666989717	-0.5154777221182296
-0.388988726004308	0.6240319463329971	-0.37466577553450187
-0.5265499545689003	0.46896614664295155	-0.33682410940526153
-0.6144875530486408	0.44645134021978927	-0.1450608338469889
-0.5413108359311362	0.5633433941398268	0.016167288358023297
-0.7731447579698736	0.13392011937068052	-0.25576381137862686
-0.7257586074256523	0.2708312308655966	-0.10275928262546839
-0.6012392528775342	0.5232132203443122	0.2141537513462574
-0.6814952649716539	-0.27621061316290857	0.37466577553449276
-0.7016392464547525	-0.06990328452981175	0.3368241094052621
-0.7595483868956295	-1.095497831175591e-15	0.14506083384698726
-0.769054604559373	-0.13757985326155595	-0.01616728835802438
-0.7042035194608653	0.3460994341623328	0.2557638113786207
-0.7463416505842645	0.20748313779136812	0.10275928262546825
-0.7939497879860622	-0.06988882099942254	-0.21415375134625825
-0.5436914952726217	-0.3460994341623474	0.5154777221182314
-0.42568482953702713	-0.20748313779136526	0.6215929178043923
-0.46942671920165435	-1.511054422795202e-15	0.6144875530486414
-0.6150472521873076	0.06990328452980965	0.4769328992836244
-0.16352020107295115	0.06988882099942599	0.805902747792714
-0.3294712125286424	0.13757985326155506	0.695093580837668
-0.6398852049392902	0.2762106131629045	0.44199226694077953
0.16115021040979524	-0.6240319463330007	0.5154777221182321
0.06578434364329763	-0.4689661466429526	0.6215929178043921
-0.1450608338469857	-0.4464513402197896	0.6144875530486409
-0.25654202753200234	-0.5633433941398291	0.47693289928362415
-0.11699873968284492	-0.13392011937066856	0.8059027477927138
-0.23265841978400353	-0.27083123086560107	0.6950935808376673
-0.46042730629379525	-0.5232132203443189	0.4419922669407698
0.0520982850561623	-0.7334942860696478	0.3746657755344889
-0.15033647681243925	-0.6888998803115528	0.3368241094052623
-0.23471335960082643	-0.7223734427985614	0.14506083384698537
-0.10680472645582126	-0.7739289057944162	-0.016167288358025163
-0.5467709771582079	-0.5627867390815227	0.25576381137861737
-0.42796044385823123	-0.6456972745468752	0.1027592826254657
-0.1788757585403756	-0.7766879528809537	-0.2141537513462653
-0.052098285056161	-0.7334942860696356	-0.37466577553451297
0.15033647681243906	-0.6888998803115551	-0.33682410940525775
0.23471335960082756	-0.72237344279856	-0.1450608338469882
0.10680472645581947	-0.7739289057944165	0.016167288358021874
0.5467709771582119	-0.5627867390815207	-0.25576381137860926
0.42796044385822923	-0.6456972745468759	-0.10275928262546896
0.17887575854038515	-0.776687952880951	0.21415375134625794
0.1169987396828375	-0.13392011937067339	-0.8059027477927144
0.23265841978400387	-0.27083123086560035	-0.6950935808376676
0.14506083384698554	-0.4464513402197904	-0.6144875530486404
-0.06578434364329853	-0.4689661466429513	-0.6215929178043934
0.4604273062937969	-0.5232132203443293	-0.4419922669407573
0.2565420275320027	-0.5633433941398254	-0.47693289928362836
-0.16115021040979222	-0.6240319463329961	-0.5154777221182347
0.16352020107294998	0.06988882099942581	-0.8059027477927153
0.32947121252864076	0.137579853261556	-0.6950935808376687
0.46942671920165446	-1.6427399478928026e-15	-0.6144875530486418
0.4256848295370278	-0.20748313779136585	-0.6215929178043914
0.6398852049392887	0.2762106131629099	-0.4419922669407818
0.6150472521873092	0.06990328452980926	-0.4769328992836221
0.5436914952726232	-0.3460994341623505	-0.5154777221182307
0.643287802600078	-0.03957351873720438	0.5154777221182291
0.46634178983618996	-0.08235388040704791	0.6215929178043915
0.3797741934478158	-0.27592210257877114	0.6144875530486416
0.4564955596297217	-0.4180686494459532	0.47693289928362115
0.09121100330804625	-0.15265600654795058	0.805902747792714
0.18568040133328959	-0.30496275915146487	0.6950935808376675
0.35532548030116473	-0.5995741666989768	0.4419922669407796
-0.09121100330805151	-0.15265600654794861	-0.805902747792713
-0.18568040133328906	-0.3049627591514641	-0.6950935808376679
-0.3797741934478134	-0.2759221025787689	-0.6144875530486437
-0.46634178983619	-0.08235388040704951	-0.6215929178043916
-0.3553254803011548	-0.5995741666989712	-0.4419922669407927
-0.4564955596297216	-0.41806864944595123	-0.47693289928362376
-0.64328780260007	-0.03957351873718848	-0.5154777221182358
0.7136937758919543	-0.17711378618197712	0.37466577553446917
0.6087261940357531	-0.35586025634846147	0.33682410940526614
0.6144875530486414	-0.44645134021978944	0.1450608338469857
0.7030456534505438	-0.3407345153954072	-0.016167288358025205
0.3662804715150994	-0.6939207673324341	0.2557638113786165
0.4818475504393865	-0.606545999904507	0.10275928262547149
0.6833984894446729	-0.41013073253359433	-0.2141537513462448
0.681495264971662	-0.27621061316291406	-0.3746657755344755
0.701639246454751	-0.06990328452981187	-0.33682410940526547
0.7595483868956302	-7.950132658316243e-17	-0.14506083384698423
0.7690546045593727	-0.13757985326155941	0.016167288358022527
0.7042035194608639	0.34609943416234573	-0.2557638113786103
0.7463416505842646	0.2074831377913647	-0.1027592826254738
0.7939497879860606	-0.06988882099942226	0.21415375134625156
-0.7136937758919415	-0.17711378618196974	-0.37466577553450053
-0.6087261940357539	-0.35586025634846236	-0.3368241094052631
-0.6144875530486417	-0.4464513402197875	-0.14506083384699145
-0.7030456534505438	-0.3407345153954076	0.016167288358024542
-0.36628047151510623	-0.693920767332426	-0.2557638113786353
-0.48184755043938354	-0.6065459999045093	-0.10275928262546899
-0.6833984894446758	-0.41013073253358906	0.21415375134624998
-0.08849167572815071	0.7302568124907272	0.303299012535966
0.17774836849568645	0.7735053122751695	0.056490080959389566
0.4780883724037888	0.6087536122330963	0.1842461061543443
0.3974686587764378	0.46368296211832294	0.5100126035689936
0.047302931683345505	0.5387760696194251	0.5835913461722948
0.43122165784667155	0.6428042735067294	-0.1842461061543515
0.3181641323243329	0.5213010732490969	-0.5100126035689994
0.49778908206153316	0.2114787230922488	-0.5835913461722966
0.7218609317489485	0.14150118047857554	-0.3032990125359688
0.6807200010406331	0.4080750308509784	-0.05649008095939299
0.6671700684275146	0.3098223501568491	0.30329901253597497
0.7905745342158064	0.0699775426136737	0.05649008095939694
0.7266965216183259	-0.26657385037240633	0.1842461061543562
0.5638132729109967	-0.23472924265574907	0.5100126035690017
0.5270239016093508	0.12150320025762758	0.5835913461722996
0.20402417941564324	0.23472924265574838	0.7323744921306427
0.28628771449561147	-0.12150320025762966	0.7323744921306443
-0.027088641295827626	-0.30982235015684734	0.7323744921306445
-0.3030294155254869	-0.06997754261367058	0.7323744921306444
-0.1601938370899372	0.26657385037240694	0.7323744921306431
-0.49778908206153194	0.21147872309225263	0.5835913461722967
-0.7218609317489486	0.14150118047857976	0.30329901253596847
-0.6807200010406297	0.4080750308509842	0.05649008095939235
-0.43122165784666827	0.6428042735067315	0.18424610615434786
-0.3181641323243323	0.5213010732491014	0.5100126035689955
-0.4780883724037869	0.6087536122330985	-0.18424610615434464
-0.39746865877643467	0.46368296211832366	-0.5100126035689958
-0.04730293168334088	0.5387760696194248	-0.5835913461722949
0.08849167572815307	0.7302568124907264	-0.303299012535965
-0.17774836849568265	0.7735053122751703	-0.05649008095938935
0.028965222537338218	-0.7735053122751712	-0.1842461061543417
0.049012892809117185	-0.6087536122330992	-0.5100126035689916
-0.27841575239481686	-0.4636829621183266	-0.5835913461722935
-0.5008254542929507	-0.5387760696194257	-0.30329901253596003
-0.3108535642897972	-0.7302568124907252	-0.05649008095938396
-0.6671700684275204	0.30982235015684645	-0.3032990125359663
-0.7905745342158058	0.06997754261366863	-0.056490080959389434
-0.7266965216183261	-0.2665738503724087	-0.18424610615434553
-0.5638132729110031	-0.23472924265575587	-0.5100126035689923
-0.5270239016093564	0.12150320025762588	-0.5835913461722966
-0.5941049065539934	-0.14150118047857388	0.5100126035689954
-0.35495350362598505	-0.4080750308509783	0.5835913461722994
-0.3576429152433694	-0.6428042735067294	0.3032990125359728
-0.5984564659606639	-0.5213010732490969	0.05649008095939619
-0.7445980136381091	-0.21147872309224586	0.18424610615434953
0.2784157523948125	-0.4636829621183223	0.5835913461722976
0.500825454292949	-0.5387760696194227	0.30329901253596847
0.3108535642897976	-0.7302568124907262	0.05649008095939294
-0.028965222537339824	-0.7735053122751696	0.18424610615435041
-0.04901289280911784	-0.6087536122330937	0.5100126035689968
0.598456465960664	-0.521301073249097	-0.056490080959397594
0.7445980136381088	-0.21147872309224278	-0.1842461061543551
0.5941049065539895	-0.14150118047857096	-0.5100126035689994
0.3549535036259841	-0.40807503085097513	-0.5835913461723011
0.3576429152433689	-0.6428042735067283	-0.3032990125359764
-0.20402417941563966	0.23472924265575018	-0.7323744921306435
-0.2862877144956111	-0.12150320025763023	-0.7323744921306444
0.027088641295831096	-0.3098223501568478	-0.7323744921306444
0.3030294155254891	-0.06997754261366959	-0.7323744921306431
0.16019383708994023	0.26657385037240705	-0.7323744921306418
0.2341632210984764	0.7206802905867206	0.37888405065247044
0.613047271750979	0.4454049146047152	-0.3788840506524988
0.7577681013049647	-5.821093005329926e-15	0.37888405065252684
5.603812349736359e-15	7.62529365957174e-15	0.8472104928494439
-0.6130472717509684	0.44540491460474074	0.3788840506524855
-0.23416322109845436	0.7206802905867266	-0.3788840506524723
-0.2341632210984809	-0.7206802905867279	-0.378884050652453
-0.7577681013049903	-2.779220278439608e-14	-0.3788840506524751
-0.6130472717509795	-0.445404914604713	0.378884050652501
0.23416322109847065	-0.7206802905867106	0.3788840506524931
0.6130472717509725	-0.4454049146046995	-0.3788840506525275
1.1117423613749894e-14	1.2743071622079595e-14	-0.8472104928494439

CELLS 420 1680
3 	 0 	 140 	 18 
3 	 18 	 140 	 19 
3 	 19 	 140 	 16 
3 	 16 	 140 	 15 
3 	 15 	 140 	 1 
3 	 1 	 140 	 0 
3 	 18 	 141 	 34 
3 	 34 	 141 	 31 
3 	 31 	 141 	 30 
3 	 30 	 141 	 33 
3 	 33 	 141 	 19 
3 	 19 	 141 	 18 
3 	 34 	 142 	 21 
3 	 21 	 142 	 22 
3 	 22 	 142 	 23 
3 	 23 	 142 	 24 
3 	 24 	 142 	 31 
3 	 31 	 142 	 34 
3 	 21 	 143 	 7 
3 	 7 	 143 	 8 
3 	 8 	 143 	 9 
3 	 9 	 143 	 10 
3 	 10 	 143 	 22 
3 	 22 	 143 	 21 
3 	 7 	 144 	 0 
3 	 0 	 144 	 1 
3 	 1 	 144 	 2 
3 	 2 	 144 	 3 
3 	 3 	 144 	 8 
3 	 8 	 144 	 7 
3 	 27 	 145 	 28 
3 	 28 	 145 	 29 
3 	 29 	 145 	 30 
3 	 30 	 145 	 31 
3 	 31 	 145 	 24 
3 	 24 	 145 	 27 
3 	 28 	 146 	 41 
3 	 41 	 146 	 38 
3 	 38 	 146 	 37 
3 	 37 	 146 	 40 
3 	 40 	 146 	 29 
3 	 29 	 146 	 28 
3 	 41 	 147 	 102 
3 	 102 	 147 	 103 
3 	 103 	 147 	 100 
3 	 100 	 147 	 99 
3 	 99 	 147 	 38 
3 	 38 	 147 	 41 
3 	 102 	 148 	 130 
3 	 130 	 148 	 131 
3 	 131 	 148 	 128 
3 	 128 	 148 	 127 
3 	 127 	 148 	 103 
3 	 103 	 148 	 102 
3 	 130 	 149 	 27 
3 	 27 	 149 	 24 
3 	 24 	 149 	 23 
3 	 23 	 149 	 26 
3 	 26 	 149 	 131 
3 	 131 	 149 	 130 
3 	 13 	 150 	 25 
3 	 25 	 150 	 26 
3 	 26 	 150 	 23 
3 	 23 	 150 	 22 
3 	 22 	 150 	 10 
3 	 10 	 150 	 13 
3 	 25 	 151 	 132 
3 	 132 	 151 	 129 
3 	 129 	 151 	 128 
3 	 128 	 151 	 131 
3 	 131 	 151 	 26 
3 	 26 	 151 	 25 
3 	 132 	 152 	 119 
3 	 119 	 152 	 120 
3 	 120 	 152 	 121 
3 	 121 	 152 	 122 
3 	 122 	 152 	 129 
3 	 129 	 152 	 132 
3 	 119 	 153 	 105 
3 	 105 	 153 	 106 
3 	 106 	 153 	 107 
3 	 107 	 153 	 108 
3 	 108 	 153 	 120 
3 	 120 	 153 	 119 
3 	 105 	 154 	 13 
3 	 13 	 154 	 10 
3 	 10 	 154 	 9 
3 	 9 	 154 	 12 
3 	 12 	 154 	 106 
3 	 106 	 154 	 105 
3 	 6 	 155 	 11 
3 	 11 	 155 	 12 
3 	 12 	 155 	 9 
3 	 9 	 155 	 8 
3 	 8 	 155 	 3 
3 	 3 	 155 	 6 
3 	 11 	 156 	 109 
3 	 109 	 156 	 110 
3 	 110 	 156 	 107 
3 	 107 	 156 	 106 
3 	 106 	 156 	 12 
3 	 12 	 156 	 11 
3 	 109 	 157 	 74 
3 	 74 	 157 	 75 
3 	 75 	 157 	 72 
3 	 72 	 157 	 71 
3 	 71 	 157 	 110 
3 	 110 	 157 	 109 
3 	 74 	 158 	 67 
3 	 67 	 158 	 68 
3 	 68 	 158 	 65 
3 	 65 	 158 	 64 
3 	 64 	 158 	 75 
3 	 75 	 158 	 74 
3 	 67 	 159 	 6 
3 	 6 	 159 	 3 
3 	 3 	 159 	 2 
3 	 2 	 159 	 5 
3 	 5 	 159 	 68 
3 	 68 	 159 	 67 
3 	 4 	 160 	 69 
3 	 69 	 160 	 66 
3 	 66 	 160 	 65 
3 	 65 	 160 	 68 
3 	 68 	 160 	 5 
3 	 5 	 160 	 4 
3 	 69 	 161 	 60 
3 	 60 	 161 	 61 
3 	 61 	 161 	 58 
3 	 58 	 161 	 57 
3 	 57 	 161 	 66 
3 	 66 	 161 	 69 
3 	 60 	 162 	 55 
3 	 55 	 162 	 52 
3 	 52 	 162 	 51 
3 	 51 	 162 	 54 
3 	 54 	 162 	 61 
3 	 61 	 162 	 60 
3 	 55 	 163 	 14 
3 	 14 	 163 	 15 
3 	 15 	 163 	 16 
3 	 16 	 163 	 17 
3 	 17 	 163 	 52 
3 	 52 	 163 	 55 
3 	 14 	 164 	 4 
3 	 4 	 164 	 5 
3 	 5 	 164 	 2 
3 	 2 	 164 	 1 
3 	 1 	 164 	 15 
3 	 15 	 164 	 14 
3 	 20 	 165 	 49 
3 	 49 	 165 	 50 
3 	 50 	 165 	 51 
3 	 51 	 165 	 52 
3 	 52 	 165 	 17 
3 	 17 	 165 	 20 
3 	 49 	 166 	 48 
3 	 48 	 166 	 45 
3 	 45 	 166 	 44 
3 	 44 	 166 	 47 
3 	 47 	 166 	 50 
3 	 50 	 166 	 49 
3 	 48 	 167 	 39 
3 	 39 	 167 	 40 
3 	 40 	 167 	 37 
3 	 37 	 167 	 36 
3 	 36 	 167 	 45 
3 	 45 	 167 	 48 
3 	 39 	 168 	 32 
3 	 32 	 168 	 33 
3 	 33 	 168 	 30 
3 	 30 	 168 	 29 
3 	 29 	 168 	 40 
3 	 40 	 168 	 39 
3 	 32 	 169 	 20 
3 	 20 	 169 	 17 
3 	 17 	 169 	 16 
3 	 16 	 169 	 19 
3 	 19 	 169 	 33 
3 	 33 	 169 	 32 
3 	 83 	 170 	 84 
3 	 84 	 170 	 85 
3 	 85 	 170 	 86 
3 	 86 	 170 	 87 
3 	 87 	 170 	 80 
3 	 80 	 170 	 83 
3 	 84 	 171 	 97 
3 	 97 	 171 	 94 
3 	 94 	 171 	 93 
3 	 93 	 171 	 96 
3 	 96 	 171 	 85 
3 	 85 	 171 	 84 
3 	 97 	 172 	 116 
3 	 116 	 172 	 117 
3 	 117 	 172 	 114 
3 	 114 	 172 	 113 
3 	 113 	 172 	 94 
3 	 94 	 172 	 97 
3 	 116 	 173 	 137 
3 	 137 	 173 	 138 
3 	 138 	 173 	 135 
3 	 135 	 173 	 134 
3 	 134 	 173 	 117 
3 	 117 	 173 	 116 
3 	 137 	 174 	 83 
3 	 83 	 174 	 80 
3 	 80 	 174 	 79 
3 	 79 	 174 	 82 
3 	 82 	 174 	 138 
3 	 138 	 174 	 137 
3 	 46 	 175 	 53 
3 	 53 	 175 	 54 
3 	 54 	 175 	 51 
3 	 51 	 175 	 50 
3 	 50 	 175 	 47 
3 	 47 	 175 	 46 
3 	 53 	 176 	 62 
3 	 62 	 176 	 59 
3 	 59 	 176 	 58 
3 	 58 	 176 	 61 
3 	 61 	 176 	 54 
3 	 54 	 176 	 53 
3 	 62 	 177 	 133 
3 	 133 	 177 	 134 
3 	 134 	 177 	 135 
3 	 135 	 177 	 136 
3 	 136 	 177 	 59 
3 	 59 	 177 	 62 
3 	 133 	 178 	 118 
3 	 118 	 178 	 115 
3 	 115 	 178 	 114 
3 	 114 	 178 	 117 
3 	 117 	 178 	 134 
3 	 134 	 178 	 133 
3 	 118 	 179 	 46 
3 	 46 	 179 	 47 
3 	 47 	 179 	 44 
3 	 44 	 179 	 43 
3 	 43 	 179 	 115 
3 	 115 	 179 	 118 
3 	 56 	 180 	 63 
3 	 63 	 180 	 64 
3 	 64 	 180 	 65 
3 	 65 	 180 	 66 
3 	 66 	 180 	 57 
3 	 57 	 180 	 56 
3 	 63 	 181 	 76 
3 	 76 	 181 	 73 
3 	 73 	 181 	 72 
3 	 72 	 181 	 75 
3 	 75 	 181 	 64 
3 	 64 	 181 	 63 
3 	 76 	 182 	 81 
3 	 81 	 182 	 82 
3 	 82 	 182 	 79 
3 	 79 	 182 	 78 
3 	 78 	 182 	 73 
3 	 73 	 182 	 76 
3 	 81 	 183 	 139 
3 	 139 	 183 	 136 
3 	 136 	 183 	 135 
3 	 135 	 183 	 138 
3 	 138 	 183 	 82 
3 	 82 	 183 	 81 
3 	 139 	 184 	 56 
3 	 56 	 184 	 57 
3 	 57 	 184 	 58 
3 	 58 	 184 	 59 
3 	 59 	 184 	 136 
3 	 136 	 184 	 139 
3 	 70 	 185 	 111 
3 	 111 	 185 	 108 
3 	 108 	 185 	 107 
3 	 107 	 185 	 110 
3 	 110 	 185 	 71 
3 	 71 	 185 	 70 
3 	 111 	 186 	 123 
3 	 123 	 186 	 124 
3 	 124 	 186 	 121 
3 	 121 	 186 	 120 
3 	 120 	 186 	 108 
3 	 108 	 186 	 111 
3 	 123 	 187 	 90 
3 	 90 	 187 	 87 
3 	 87 	 187 	 86 
3 	 86 	 187 	 89 
3 	 89 	 187 	 124 
3 	 124 	 187 	 123 
3 	 90 	 188 	 77 
3 	 77 	 188 	 78 
3 	 78 	 188 	 79 
3 	 79 	 188 	 80 
3 	 80 	 188 	 87 
3 	 87 	 188 	 90 
3 	 77 	 189 	 70 
3 	 70 	 189 	 71 
3 	 71 	 189 	 72 
3 	 72 	 189 	 73 
3 	 73 	 189 	 78 
3 	 78 	 189 	 77 
3 	 88 	 190 	 125 
3 	 125 	 190 	 122 
3 	 122 	 190 	 121 
3 	 121 	 190 	 124 
3 	 124 	 190 	 89 
3 	 89 	 190 	 88 
3 	 125 	 191 	 126 
3 	 126 	 191 	 127 
3 	 127 	 191 	 128 
3 	 128 	 191 	 129 
3 	 129 	 191 	 122 
3 	 122 	 191 	 125 
3 	 126 	 192 	 104 
3 	 104 	 192 	 101 
3 	 101 	 192 	 100 
3 	 100 	 192 	 103 
3 	 103 	 192 	 127 
3 	 127 	 192 	 126 
3 	 104 	 193 	 95 
3 	 95 	 193 	 96 
3 	 96 	 193 	 93 
3 	 93 	 193 	 92 
3 	 92 	 193 	 101 
3 	 101 	 193 	 104 
3 	 95 	 194 	 88 
3 	 88 	 194 	 89 
3 	 89 	 194 	 86 
3 	 86 	 194 	 85 
3 	 85 	 194 	 96 
3 	 96 	 194 	 95 
3 	 35 	 195 	 42 
3 	 42 	 195 	 43 
3 	 43 	 195 	 44 
3 	 44 	 195 	 45 
3 	 45 	 195 	 36 
3 	 36 	 195 	 35 
3 	 42 	 196 	 112 
3 	 112 	 196 	 113 
3 	 113 	 196 	 114 
3 	 114 	 196 	 115 
3 	 115 	 196 	 43 
3 	 43 	 196 	 42 
3 	 112 	 197 	 91 
3 	 91 	 197 	 92 
3 	 92 	 197 	 93 
3 	 93 	 197 	 94 
3 	 94 	 197 	 113 
3 	 113 	 197 	 112 
3 	 91 	 198 	 98 
3 	 98 	 198 	 99 
3 	 99 	 198 	 100 
3 	 100 	 198 	 101 
3 	 101 	 198 	 92 
3 	 92 	 198 	 91 
3 	 98 	 199 	 35 
3 	 35 	 199 	 36 
3 	 36 	 199 	 37 
3 	 37 	 199 	 38 
3 	 38 	 199 	 99 
3 	 99 	 199 	 98 
3 	 0 	 18 	 200
3 	 18 	 34 	 200
3 	 34 	 21 	 200
3 	 21 	 7 	 200
3 	 7 	 0 	 200
3 	 27 	 28 	 201
3 	 28 	 41 	 201
3 	 41 	 102 	 201
3 	 102 	 130 	 201
3 	 130 	 27 	 201
3 	 13 	 25 	 202
3 	 25 	 132 	 202
3 	 132 	 119 	 202
3 	 119 	 105 	 202
3 	 105 	 13 	 202
3 	 6 	 11 	 203
3 	 11 	 109 	 203
3 	 109 	 74 	 203
3 	 74 	 67 	 203
3 	 67 	 6 	 203
3 	 4 	 69 	 204
3 	 69 	 60 	 204
3 	 60 	 55 	 204
3 	 55 	 14 	 204
3 	 14 	 4 	 204
3 	 20 	 49 	 205
3 	 49 	 48 	 205
3 	 48 	 39 	 205
3 	 39 	 32 	 205
3 	 32 	 20 	 205
3 	 83 	 84 	 206
3 	 84 	 97 	 206
3 	 97 	 116 	 206
3 	 116 	 137 	 206
3 	 137 	 83 	 206
3 	 46 	 53 	 207
3 	 53 	 62 	 207
3 	 62 	 133 	 207
3 	 133 	 118 	 207
3 	 118 	 46 	 207
3 	 56 	 63 	 208
3 	 63 	 76 	 208
3 	 76 	 81 	 208
3 	 81 	 139 	 208
3 	 139 	 56 	 208
3 	 70 	 111 	 209
3 	 111 	 123 	 209
3 	 123 	 90 	 209
3 	 90 	 77 	 209
3 	 77 	 70 	 209
3 	 88 	 125 	 210
3 	 125 	 126 	 210
3 	 126 	 104 	 210
3 	 104 	 95 	 210
3 	 95 	 88 	 210
3 	 35 	 42 	 211
3 	 42 	 112 	 211
3 	 112 	 91 	 211
3 	 91 	 98 	 211
3 	 98 	 35 	 211

CELL_TYPES    420
5
5
5
5
5
5
5
5
5
5
5
5
5
5
5
5
5
5
5
5
5
5
5
5
5
5
5
5
5
5
5
5
5
5
5
5
5
5
5
5
5
5
5
5
5
5
5
5
5
5
5
5
5
5
5
5
5
5
5
5
5
5
5
5
5
5
5
5
5
5
5
5
5
5
5
5
5
5
5
5
5
5
5
5
5
5
5
5
5
5
5
5
5
5
5
5
5
5
5
5
5
5
5
5
5
5
5
5
5
5
5
5
5
5
5
5
5
5
5
5
5
5
5
5
5
5
5
5
5
5
5
5
5
5
5
5
5
5
5
5
5
5
5
5
5
5
5
5
5
5
5
5
5
5
5
5
5
5
5
5
5
5
5
5
5
5
5
5
5
5
5
5
5
5
5
5
5
5
5
5
5
5
5
5
5
5
5
5
5
5
5
5
5
5
5
5
5
5
5
5
5
5
5
5
5
5
5
5
5
5
5
5
5
5
5
5
5
5
5
5
5
5
5
5
5
5
5
5
5
5
5
5
5
5
5
5
5
5
5
5
5
5
5
5
5
5
5
5
5
5
5
5
5
5
5
5
5
5
5
5
5
5
5
5
5
5
5
5
5
5
5
5
5
5
5
5
5
5
5
5
5
5
5
5
5
5
5
5
5
5
5
5
5
5
5
5
5
5
5
5
5
5
5
5
5
5
5
5
5
5
5
5
5
5
5
5
5
5
5
5
5
5
5
5
5
5
5
5
5
5
5
5
5
5
5
5
5
5
5
5
5
5
5
5
5
5
5
5
5
5
5
5
5
5
5
5
5
5
5
5
5
5
5
5
5
5
5
5
5
5
5
5
5
5
5
5
5
5
5
5
5
5
5
5
5
5
5
5
5
5
5
5
5
5
5
5
5
5
5
5
5
5
5
5
5
5
5
5
5
5
5
5
5
5
5
5
5
5
5
5

CELL_DATA     420
SCALARS eletype float 1
LOOKUP_TABLE default

6
6
6
6
6
6
6
6
6
6
6
6
6
6
6
6
6
6
6
6
6
6
6
6
6
6
6
6
6
6
6
6
6
6
6
6
6
6
6
6
6
6
6
6
6
6
6
6
6
6
6
6
6
6
6
6
6
6
6
6
6
6
6
6
6
6
6
6
6
6
6
6
6
6
6
6
6
6
6
6
6
6
6
6
6
6
6
6
6
6
6
6
6
6
6
6
6
6
6
6
6
6
6
6
6
6
6
6
6
6
6
6
6
6
6
6
6
6
6
6
6
6
6
6
6
6
6
6
6
6
6
6
6
6
6
6
6
6
6
6
6
6
6
6
6
6
6
6
6
6
6
6
6
6
6
6
6
6
6
6
6
6
6
6
6
6
6
6
6
6
6
6
6
6
6
6
6
6
6
6
6
6
6
6
6
6
6
6
6
6
6
6
6
6
6
6
6
6
6
6
6
6
6
6
6
6
6
6
6
6
6
6
6
6
6
6
6
6
6
6
6
6
6
6
6
6
6
6
6
6
6
6
6
6
6
6
6
6
6
6
6
6
6
6
6
6
6
6
6
6
6
6
6
6
6
6
6
6
6
6
6
6
6
6
6
6
6
6
6
6
6
6
6
6
6
6
6
6
6
6
6
6
6
6
6
6
6
6
6
6
6
6
6
6
6
6
6
6
6
6
6
6
6
6
6
6
6
6
6
6
6
6
6
6
6
6
6
6
6
6
6
6
6
6
6
6
6
6
6
6
6
6
6
6
6
6
6
6
6
6
6
6
6
6
6
6
6
6
6
6
6
6
6
6
6
6
6
6
6
6
5
5
5
5
5
5
5
5
5
5
5
5
5
5
5
5
5
5
5
5
5
5
5
5
5
5
5
5
5
5
5
5
5
5
5
5
5
5
5
5
5
5
5
5
5
5
5
5
5
5
5
5
5
5
5
5
5
5
5
5
SCALARS capsomer float 1
LOOKUP_TABLE default

0
0
0
0
0
0
1
1
1
1
1
1
2
2
2
2
2
2
3
3
3
3
3
3
4
4
4
4
4
4
5
5
5
5
5
5
6
6
6
6
6
6
7
7
7
7
7
7
8
8
8
8
8
8
9
9
9
9
9
9
10
10
10
10
10
10
11
11
11
11
11
11
12
12
12
12
12
12
13
13
13
13
13
13
14
14
14
14
14
14
15
15
15
15
15
15
16
16
16
16
16
16
17
17
17
17
17
17
18
18
18
18
18
18
19
19
19
19
19
19
20
20
20
20
20
20
21
21
21
21
21
21
22
22
22
22
22
22
23
23
23
23
23
23
24
24
24
24
24
24
25
25
25
25
25
25
26
26
26
26
26
26
27
27
27
27
27
27
28
28
28
28
28
28
29
29
29
29
29
29
30
30
30
30
30
30
31
31
31
31
31
31
32
32
32
32
32
32
33
33
33
33
33
33
34
34
34
34
34
34
35
35
35
35
35
35
36
36
36
36
36
36
37
37
37
37
37
37
38
38
38
38
38
38
39
39
39
39
39
39
40
40
40
40
40
40
41
41
41
41
41
41
42
42
42
42
42
42
43
43
43
43
43
43
44
44
44
44
44
44
45
45
45
45
45
45
46
46
46
46
46
46
47
47
47
47
47
47
48
48
48
48
48
48
49
49
49
49
49
49
50
50
50
50
50
50
51
51
51
51
51
51
52
52
52
52
52
52
53
53
53
53
53
53
54
54
54
54
54
54
55
55
55
55
55
55
56
56
56
56
56
56
57
57
57
57
57
57
58
58
58
58
58
58
59
59
59
59
59
59
60
60
60
60
60
61
61
61
61
61
62
62
62
62
62
63
63
63
63
63
64
64
64
64
64
65
65
65
65
65
66
66
66
66
66
67
67
67
67
67
68
68
68
68
68
69
69
69
69
69
70
70
70
70
70
71
71
71
71
71
SCALARS shear_direction float 1
LOOKUP_TABLE default

120
180
240
300
360
420
120
180
240
300
360
420
120
180
240
300
360
420
120
180
240
300
360
420
120
180
240
300
360
420
120
180
240
300
360
420
120
180
240
300
360
420
120
180
240
300
360
420
120
180
240
300
360
420
120
180
240
300
360
420
120
180
240
300
360
420
120
180
240
300
360
420
120
180
240
300
360
420
120
180
240
300
360
420
120
180
240
300
360
420
120
180
240
300
360
420
120
180
240
300
360
420
120
180
240
300
360
420
120
180
240
300
360
420
120
180
240
300
360
420
120
180
240
300
360
420
120
180
240
300
360
420
120
180
240
300
360
420
120
180
240
300
360
420
120
180
240
300
360
420
120
180
240
300
360
420
120
180
240
300
360
420
120
180
240
300
360
420
120
180
240
300
360
420
120
180
240
300
360
420
120
180
240
300
360
420
120
180
240
300
360
420
120
180
240
300
360
420
120
180
240
300
360
420
120
180
240
300
360
420
120
180
240
300
360
420
120
180
240
300
360
420
120
180
240
300
360
420
120
180
240
300
360
420
120
180
240
300
360
420
120
180
240
300
360
420
120
180
240
300
360
420
120
180
240
300
360
420
120
180
240
300
360
420
120
180
240
300
360
420
120
180
240
300
360
420
120
180
240
300
360
420
120
180
240
300
360
420
120
180
240
300
360
420
120
180
240
300
360
420
120
180
240
300
360
420
120
180
240
300
360
420
120
180
240
300
360
420
120
180
240
300
360
420
120
180
240
300
360
420
120
180
240
300
360
420
120
180
240
300
360
420
120
180
240
300
360
420
120
180
240
300
360
420
120
180
240
300
360
420
-1
-1
-1
-1
-1
-1
-1
-1
-1
-1
-1
-1
-1
-1
-1
-1
-1
-1
-1
-1
-1
-1
-1
-1
-1
-1
-1
-1
-1
-1
-1
-1
-1
-1
-1
-1
-1
-1
-1
-1
-1
-1
-1
-1
-1
-1
-1
-1
-1
-1
-1
-1
-1
-1
-1
-1
-1
-1
-1
-1
